# vtk DataFile Version 2.0
Output of NLACE
ASCII
DATASET UNSTRUCTURED_GRID
POINTS         1645 FLOAT
 0.000000E+00 -0.000000E+00  0.000000E+00
 6.818000E-01 -0.000000E+00  0.000000E+00
 1.363600E+00 -0.000000E+00  0.000000E+00
 2.045400E+00 -0.000000E+00  0.000000E+00
 2.727200E+00 -0.000000E+00  0.000000E+00
 3.409000E+00 -0.000000E+00  0.000000E+00
 4.090800E+00 -0.000000E+00  0.000000E+00
 4.772600E+00 -0.000000E+00  0.000000E+00
 5.454400E+00 -0.000000E+00  0.000000E+00
 6.136200E+00 -0.000000E+00  0.000000E+00
 6.818000E+00 -0.000000E+00  0.000000E+00
 7.499800E+00 -0.000000E+00  0.000000E+00
 8.181600E+00 -0.000000E+00  0.000000E+00
 8.863400E+00 -0.000000E+00  0.000000E+00
 9.545200E+00 -0.000000E+00  0.000000E+00
 1.022700E+01 -0.000000E+00  0.000000E+00
 1.090880E+01 -0.000000E+00  0.000000E+00
 1.159060E+01 -0.000000E+00  0.000000E+00
 1.227240E+01 -0.000000E+00  0.000000E+00
 1.295420E+01 -0.000000E+00  0.000000E+00
 1.363600E+01 -0.000000E+00  0.000000E+00
 1.431780E+01 -0.000000E+00  0.000000E+00
 1.499960E+01 -0.000000E+00  0.000000E+00
 1.568140E+01 -0.000000E+00  0.000000E+00
 1.636320E+01 -0.000000E+00  0.000000E+00
 1.704500E+01 -0.000000E+00  0.000000E+00
 1.772680E+01 -0.000000E+00  0.000000E+00
 1.840860E+01 -0.000000E+00  0.000000E+00
 1.909040E+01 -0.000000E+00  0.000000E+00
 1.977220E+01 -0.000000E+00  0.000000E+00
 2.045400E+01 -0.000000E+00  0.000000E+00
 2.113580E+01 -0.000000E+00  0.000000E+00
 2.181760E+01 -0.000000E+00  0.000000E+00
 2.249940E+01 -0.000000E+00  0.000000E+00
 2.318120E+01 -0.000000E+00  0.000000E+00
 2.386300E+01 -0.000000E+00  0.000000E+00
 2.454480E+01 -0.000000E+00  0.000000E+00
 2.522660E+01 -0.000000E+00  0.000000E+00
 2.590840E+01 -0.000000E+00  0.000000E+00
 2.659020E+01 -0.000000E+00  0.000000E+00
 2.727200E+01 -0.000000E+00  0.000000E+00
 2.795380E+01 -0.000000E+00  0.000000E+00
 2.863560E+01 -0.000000E+00  0.000000E+00
 2.931740E+01 -0.000000E+00  0.000000E+00
 2.999920E+01 -0.000000E+00  0.000000E+00
 3.068100E+01 -0.000000E+00  0.000000E+00
 3.136280E+01 -0.000000E+00  0.000000E+00
 0.000000E+00 -5.988800E-01  0.000000E+00
 6.818000E-01 -5.988800E-01  0.000000E+00
 1.363600E+00 -5.988800E-01  0.000000E+00
 2.045400E+00 -5.988800E-01  0.000000E+00
 2.727200E+00 -5.988800E-01  0.000000E+00
 3.409000E+00 -5.988800E-01  0.000000E+00
 4.090800E+00 -5.988800E-01  0.000000E+00
 4.772600E+00 -5.988800E-01  0.000000E+00
 5.454400E+00 -5.988800E-01  0.000000E+00
 6.136200E+00 -5.988800E-01  0.000000E+00
 6.818000E+00 -5.988800E-01  0.000000E+00
 7.499800E+00 -5.988800E-01  0.000000E+00
 8.181600E+00 -5.988800E-01  0.000000E+00
 8.863400E+00 -5.988800E-01  0.000000E+00
 9.545200E+00 -5.988800E-01  0.000000E+00
 1.022700E+01 -5.988800E-01  0.000000E+00
 1.090880E+01 -5.988800E-01  0.000000E+00
 1.159060E+01 -5.988800E-01  0.000000E+00
 1.227240E+01 -5.988800E-01  0.000000E+00
 1.295420E+01 -5.988800E-01  0.000000E+00
 1.363600E+01 -5.988800E-01  0.000000E+00
 1.431780E+01 -5.988800E-01  0.000000E+00
 1.499960E+01 -5.988800E-01  0.000000E+00
 1.568140E+01 -5.988800E-01  0.000000E+00
 1.636320E+01 -5.988800E-01  0.000000E+00
 1.704500E+01 -5.988800E-01  0.000000E+00
 1.772680E+01 -5.988800E-01  0.000000E+00
 1.840860E+01 -5.988800E-01  0.000000E+00
 1.909040E+01 -5.988800E-01  0.000000E+00
 1.977220E+01 -5.988800E-01  0.000000E+00
 2.045400E+01 -5.988800E-01  0.000000E+00
 2.113580E+01 -5.988800E-01  0.000000E+00
 2.181760E+01 -5.988800E-01  0.000000E+00
 2.249940E+01 -5.988800E-01  0.000000E+00
 2.318120E+01 -5.988800E-01  0.000000E+00
 2.386300E+01 -5.988800E-01  0.000000E+00
 2.454480E+01 -5.988800E-01  0.000000E+00
 2.522660E+01 -5.988800E-01  0.000000E+00
 2.590840E+01 -5.988800E-01  0.000000E+00
 2.659020E+01 -5.988800E-01  0.000000E+00
 2.727200E+01 -5.988800E-01  0.000000E+00
 2.795380E+01 -5.988800E-01  0.000000E+00
 2.863560E+01 -5.988800E-01  0.000000E+00
 2.931740E+01 -5.988800E-01  0.000000E+00
 2.999920E+01 -5.988800E-01  0.000000E+00
 3.068100E+01 -5.988800E-01  0.000000E+00
 3.136280E+01 -5.988800E-01  0.000000E+00
 0.000000E+00 -1.197760E+00  0.000000E+00
 6.818000E-01 -1.197760E+00  0.000000E+00
 1.363600E+00 -1.197760E+00  0.000000E+00
 2.045400E+00 -1.197760E+00  0.000000E+00
 2.727200E+00 -1.197760E+00  0.000000E+00
 3.409000E+00 -1.197760E+00  0.000000E+00
 4.090800E+00 -1.197760E+00  0.000000E+00
 4.772600E+00 -1.197760E+00  0.000000E+00
 5.454400E+00 -1.197760E+00  0.000000E+00
 6.136200E+00 -1.197760E+00  0.000000E+00
 6.818000E+00 -1.197760E+00  0.000000E+00
 7.499800E+00 -1.197760E+00  0.000000E+00
 8.181600E+00 -1.197760E+00  0.000000E+00
 8.863400E+00 -1.197760E+00  0.000000E+00
 9.545200E+00 -1.197760E+00  0.000000E+00
 1.022700E+01 -1.197760E+00  0.000000E+00
 1.090880E+01 -1.197760E+00  0.000000E+00
 1.159060E+01 -1.197760E+00  0.000000E+00
 1.227240E+01 -1.197760E+00  0.000000E+00
 1.295420E+01 -1.197760E+00  0.000000E+00
 1.363600E+01 -1.197760E+00  0.000000E+00
 1.431780E+01 -1.197760E+00  0.000000E+00
 1.499960E+01 -1.197760E+00  0.000000E+00
 1.568140E+01 -1.197760E+00  0.000000E+00
 1.636320E+01 -1.197760E+00  0.000000E+00
 1.704500E+01 -1.197760E+00  0.000000E+00
 1.772680E+01 -1.197760E+00  0.000000E+00
 1.840860E+01 -1.197760E+00  0.000000E+00
 1.909040E+01 -1.197760E+00  0.000000E+00
 1.977220E+01 -1.197760E+00  0.000000E+00
 2.045400E+01 -1.197760E+00  0.000000E+00
 2.113580E+01 -1.197760E+00  0.000000E+00
 2.181760E+01 -1.197760E+00  0.000000E+00
 2.249940E+01 -1.197760E+00  0.000000E+00
 2.318120E+01 -1.197760E+00  0.000000E+00
 2.386300E+01 -1.197760E+00  0.000000E+00
 2.454480E+01 -1.197760E+00  0.000000E+00
 2.522660E+01 -1.197760E+00  0.000000E+00
 2.590840E+01 -1.197760E+00  0.000000E+00
 2.659020E+01 -1.197760E+00  0.000000E+00
 2.727200E+01 -1.197760E+00  0.000000E+00
 2.795380E+01 -1.197760E+00  0.000000E+00
 2.863560E+01 -1.197760E+00  0.000000E+00
 2.931740E+01 -1.197760E+00  0.000000E+00
 2.999920E+01 -1.197760E+00  0.000000E+00
 3.068100E+01 -1.197760E+00  0.000000E+00
 3.136280E+01 -1.197760E+00  0.000000E+00
 0.000000E+00 -1.796640E+00  0.000000E+00
 6.818000E-01 -1.796640E+00  0.000000E+00
 1.363600E+00 -1.796640E+00  0.000000E+00
 2.045400E+00 -1.796640E+00  0.000000E+00
 2.727200E+00 -1.796640E+00  0.000000E+00
 3.409000E+00 -1.796640E+00  0.000000E+00
 4.090800E+00 -1.796640E+00  0.000000E+00
 4.772600E+00 -1.796640E+00  0.000000E+00
 5.454400E+00 -1.796640E+00  0.000000E+00
 6.136200E+00 -1.796640E+00  0.000000E+00
 6.818000E+00 -1.796640E+00  0.000000E+00
 7.499800E+00 -1.796640E+00  0.000000E+00
 8.181600E+00 -1.796640E+00  0.000000E+00
 8.863400E+00 -1.796640E+00  0.000000E+00
 9.545200E+00 -1.796640E+00  0.000000E+00
 1.022700E+01 -1.796640E+00  0.000000E+00
 1.090880E+01 -1.796640E+00  0.000000E+00
 1.159060E+01 -1.796640E+00  0.000000E+00
 1.227240E+01 -1.796640E+00  0.000000E+00
 1.295420E+01 -1.796640E+00  0.000000E+00
 1.363600E+01 -1.796640E+00  0.000000E+00
 1.431780E+01 -1.796640E+00  0.000000E+00
 1.499960E+01 -1.796640E+00  0.000000E+00
 1.568140E+01 -1.796640E+00  0.000000E+00
 1.636320E+01 -1.796640E+00  0.000000E+00
 1.704500E+01 -1.796640E+00  0.000000E+00
 1.772680E+01 -1.796640E+00  0.000000E+00
 1.840860E+01 -1.796640E+00  0.000000E+00
 1.909040E+01 -1.796640E+00  0.000000E+00
 1.977220E+01 -1.796640E+00  0.000000E+00
 2.045400E+01 -1.796640E+00  0.000000E+00
 2.113580E+01 -1.796640E+00  0.000000E+00
 2.181760E+01 -1.796640E+00  0.000000E+00
 2.249940E+01 -1.796640E+00  0.000000E+00
 2.318120E+01 -1.796640E+00  0.000000E+00
 2.386300E+01 -1.796640E+00  0.000000E+00
 2.454480E+01 -1.796640E+00  0.000000E+00
 2.522660E+01 -1.796640E+00  0.000000E+00
 2.590840E+01 -1.796640E+00  0.000000E+00
 2.659020E+01 -1.796640E+00  0.000000E+00
 2.727200E+01 -1.796640E+00  0.000000E+00
 2.795380E+01 -1.796640E+00  0.000000E+00
 2.863560E+01 -1.796640E+00  0.000000E+00
 2.931740E+01 -1.796640E+00  0.000000E+00
 2.999920E+01 -1.796640E+00  0.000000E+00
 3.068100E+01 -1.796640E+00  0.000000E+00
 3.136280E+01 -1.796640E+00  0.000000E+00
 0.000000E+00 -2.395520E+00  0.000000E+00
 6.818000E-01 -2.395520E+00  0.000000E+00
 1.363600E+00 -2.395520E+00  0.000000E+00
 2.045400E+00 -2.395520E+00  0.000000E+00
 2.727200E+00 -2.395520E+00  0.000000E+00
 3.409000E+00 -2.395520E+00  0.000000E+00
 4.090800E+00 -2.395520E+00  0.000000E+00
 4.772600E+00 -2.395520E+00  0.000000E+00
 5.454400E+00 -2.395520E+00  0.000000E+00
 6.136200E+00 -2.395520E+00  0.000000E+00
 6.818000E+00 -2.395520E+00  0.000000E+00
 7.499800E+00 -2.395520E+00  0.000000E+00
 8.181600E+00 -2.395520E+00  0.000000E+00
 8.863400E+00 -2.395520E+00  0.000000E+00
 9.545200E+00 -2.395520E+00  0.000000E+00
 1.022700E+01 -2.395520E+00  0.000000E+00
 1.090880E+01 -2.395520E+00  0.000000E+00
 1.159060E+01 -2.395520E+00  0.000000E+00
 1.227240E+01 -2.395520E+00  0.000000E+00
 1.295420E+01 -2.395520E+00  0.000000E+00
 1.363600E+01 -2.395520E+00  0.000000E+00
 1.431780E+01 -2.395520E+00  0.000000E+00
 1.499960E+01 -2.395520E+00  0.000000E+00
 1.568140E+01 -2.395520E+00  0.000000E+00
 1.636320E+01 -2.395520E+00  0.000000E+00
 1.704500E+01 -2.395520E+00  0.000000E+00
 1.772680E+01 -2.395520E+00  0.000000E+00
 1.840860E+01 -2.395520E+00  0.000000E+00
 1.909040E+01 -2.395520E+00  0.000000E+00
 1.977220E+01 -2.395520E+00  0.000000E+00
 2.045400E+01 -2.395520E+00  0.000000E+00
 2.113580E+01 -2.395520E+00  0.000000E+00
 2.181760E+01 -2.395520E+00  0.000000E+00
 2.249940E+01 -2.395520E+00  0.000000E+00
 2.318120E+01 -2.395520E+00  0.000000E+00
 2.386300E+01 -2.395520E+00  0.000000E+00
 2.454480E+01 -2.395520E+00  0.000000E+00
 2.522660E+01 -2.395520E+00  0.000000E+00
 2.590840E+01 -2.395520E+00  0.000000E+00
 2.659020E+01 -2.395520E+00  0.000000E+00
 2.727200E+01 -2.395520E+00  0.000000E+00
 2.795380E+01 -2.395520E+00  0.000000E+00
 2.863560E+01 -2.395520E+00  0.000000E+00
 2.931740E+01 -2.395520E+00  0.000000E+00
 2.999920E+01 -2.395520E+00  0.000000E+00
 3.068100E+01 -2.395520E+00  0.000000E+00
 3.136280E+01 -2.395520E+00  0.000000E+00
[...]
POINT_DATA         1645
 SCALARS measuredDisp11 float  1                   
LOOKUP_TABLE default
-1.25970E-02
-3.88540E-02
 5.04750E-02
 1.92080E-02
 5.73600E-03
-1.04618E-01
 7.97800E-03
 5.53650E-02
 8.13640E-02
 5.35100E-02
 9.88290E-02
 4.40060E-02
-1.15482E-01
 1.08177E-01
-2.54537E-01
-1.51810E-02
 1.68340E-02
 9.91080E-02
-2.41430E-02
-1.02770E-02
-7.05300E-03
 7.30700E-03
-4.82090E-02
 7.10860E-02
 1.27046E-01
 1.51388E-01
-3.40360E-02
 1.69283E-01
 1.65498E-01
-6.19000E-02
 1.56018E-01
 4.32400E-02
-7.60220E-02
 1.67393E-01
 3.00770E-02
-9.49440E-02
 2.44470E-02
-2.27240E-02
 4.48380E-02
-5.51740E-02
 1.49009E-01
 2.79290E-02
-2.26397E-01
 1.23025E-01
 4.10830E-02
-1.01940E-02
 1.93110E-02
-6.17790E-02
-6.00630E-02
-2.88490E-02
 5.53290E-02
 2.32830E-02
-1.05695E-01
-1.35251E-01
-1.53821E-01
-1.76810E-02
 3.06380E-02
-5.08360E-02
 4.30560E-02
 1.96910E-02
 3.19620E-02
-2.50400E-03
-8.00110E-02
-3.04170E-02
-3.16490E-02
-2.25860E-02
-6.28950E-02
 7.54080E-02
 7.96540E-02
 4.47900E-03
-8.72600E-03
-3.22940E-02
 8.60300E-03
-2.44870E-02
-3.27460E-02
 4.90000E-04
-9.32400E-02
 1.64876E-01
 1.57310E-02
 2.23260E-02
-3.57300E-02
-1.55579E-01
-6.09890E-02
 1.06154E-01
 4.11930E-02
-3.56900E-02
 3.74820E-02
 4.74930E-02
 4.68940E-02
-4.66350E-02
-3.43800E-02
-7.25960E-02
-5.12110E-02
-7.27060E-02
-1.55190E-02
-1.77500E-03
 1.57659E-01
 3.20510E-02
-6.42200E-03
-8.25580E-02
-2.41829E-01
-5.54550E-02
-3.93660E-02
-1.95690E-02
-8.33400E-03
-8.22520E-02
-3.80540E-02
-1.16042E-01
-3.11400E-02
-1.23650E-02
-8.22200E-03
-5.06160E-02
-3.63130E-02
-6.00920E-02
 3.43670E-02
 4.60460E-02
 2.93400E-03
-5.66300E-02
-4.10910E-02
 2.64200E-02
 2.80600E-02
 6.54530E-02
-5.40880E-02
-1.40156E-01
-1.19447E-01
 1.01229E-01
 1.64380E-02
 2.31770E-02
 4.77860E-02
 2.26489E-01
 1.57180E-01
 3.53990E-02
-4.34720E-02
 3.55490E-02
 1.40411E-01
 4.90480E-02
-1.14999E-01
 1.98640E-02
-2.25770E-02
-4.88340E-02
-2.24590E-02
-4.90010E-02
 5.35520E-02
-4.59860E-02
-2.02340E-02
-5.42350E-02
-1.28910E-02
 3.54920E-02
 4.75530E-02
 6.76460E-02
-2.27630E-02
-3.82010E-02
-4.97670E-02
-2.80470E-02
 1.92000E-03
-2.73760E-02
-3.92470E-02
-1.56410E-02
 5.28220E-02
 5.34900E-03
-6.89140E-02
 1.81750E-02
 1.12756E-01
 8.75500E-02
 6.87030E-02
-2.58110E-02
-2.04500E-03
 1.29000E-04
 3.57670E-02
 3.58620E-02
 6.72580E-02
 3.85640E-02
-6.80700E-03
-2.95430E-02
-5.22220E-02
-3.80820E-02
 2.22570E-02
 1.71040E-02
 1.60736E-01
 6.82010E-02
 3.66680E-02
-1.07500E-03
-4.75930E-02
-8.44850E-02
-6.04360E-02
 3.26400E-02
 4.25430E-02
 1.23170E-02
 3.07100E-03
-2.33070E-02
 7.14920E-02
 1.71040E-02
 3.00520E-02
-5.19680E-02
-3.20680E-02
-8.88690E-02
-6.63380E-02
-1.09657E-01
-3.73770E-02
-1.08790E-02
-1.60470E-02
 2.89910E-02
 1.99300E-03
-2.94340E-02
-3.93540E-02
-3.98100E-02
-7.10330E-02
-7.43150E-02
 1.47140E-02
 1.77600E-03
 9.80500E-03
 5.36310E-02
 5.37690E-02
 6.97210E-02
 1.12130E-01
-1.85020E-02
-7.10600E-03
-2.46350E-02
 5.56590E-02
 1.88370E-02
 9.56540E-02
 8.17810E-02
 3.20060E-02
 5.10780E-02
 5.00000E-06
 1.13457E-01
 1.40030E-02
-1.84570E-02
 2.97100E-03
-6.82400E-03
 7.40510E-02
 3.50300E-03
 6.47720E-02
 3.25590E-02
 5.88090E-02
-2.29460E-02
-9.11600E-03
-2.88500E-03
-3.72400E-03
-4.14700E-03
-6.67570E-02
-2.57400E-02
-1.43670E-02
-5.10800E-02
-1.51009E-01
-9.04000E-04
 5.28140E-02
-4.15700E-03
-5.89660E-02
-1.05026E-01
-3.18120E-02
 5.38060E-02
 6.74710E-02
 4.22400E-03
-2.66870E-02
 9.19840E-02
 9.25340E-02
 3.46280E-02
 2.86580E-02
 1.43010E-02
 4.09580E-02
 6.42520E-02
 4.94190E-02
 1.02322E-01
 4.31500E-02
-7.37700E-03
-4.60720E-02
 1.14182E-01
 1.89560E-02
 6.29080E-02
 2.79690E-02
-4.06000E-04
 6.24660E-02
 1.90900E-02
 5.47500E-03
 1.39530E-02
 6.52560E-02
 1.43000E-02
-8.15300E-03
 6.12710E-02
 1.53960E-02
 5.27000E-04
-6.18380E-02
-3.78180E-02
-1.84720E-02
-7.01980E-02
-5.85300E-03
-5.17430E-02
-3.54330E-02
-7.23470E-02
-3.74980E-02
 5.78310E-02
-4.39200E-03
-6.71390E-02
-2.53786E-01
-6.57950E-02
-9.60000E-02
-1.35450E-02
 6.19340E-02
 3.42960E-02
-2.17610E-02
 3.76350E-02
 2.78430E-02
-5.43430E-02
 2.99630E-02
 9.11500E-03
 1.17906E-01
-4.13980E-02
-2.38200E-02
 6.00370E-02
 9.47850E-02
 7.27980E-02
 7.97950E-02
 1.07170E-02
 1.09538E-01
 4.24970E-02
 1.56805E-01
 1.65790E-02
 1.62870E-02
 7.95960E-02
 5.34630E-02
 4.94800E-02
-2.25190E-02
 2.32140E-02
 3.70440E-02
 7.07240E-02
 4.38270E-02
 5.57480E-02
 4.44890E-02
-1.27500E-02
-7.62180E-02
-5.60590E-02
-2.28056E-01
-6.40440E-02
-6.77540E-02
 7.16070E-02
-1.19600E-02
-3.42210E-02
-5.50370E-02
-7.60280E-02
-7.95620E-02
-2.86670E-02
 3.77320E-02
-2.52590E-02
 5.99660E-02
 3.05720E-02
-8.49990E-02
-2.73600E-03
 3.37950E-02
 5.12840E-02
 1.05030E-01
 1.55730E-02
 2.47400E-02
 3.97170E-02
 3.14190E-02
-6.86500E-02
 7.05640E-02
 6.89840E-02
 2.08870E-02
 2.01629E-01
 4.13540E-02
 1.50000E-05
 7.03670E-02
 6.82770E-02
 9.00940E-02
 9.19140E-02
 1.47045E-01
 7.32390E-02
 4.01720E-02
 7.07950E-02
 1.10847E-01
 8.16890E-02
-9.04000E-03
 1.94060E-02
 9.74700E-03
 6.54400E-02
-9.85500E-03
-1.06185E-01
-1.46071E-01
-2.81370E-02
-1.18034E-01
 4.38360E-02
-1.85300E-02
-1.13960E-02
-5.29200E-02
 1.66533E-01
-2.42793E-01
-1.08301E-01
-6.07600E-03
 1.26810E-02
-1.50880E-02
 8.50730E-02
-6.73160E-02
 3.06440E-02
 3.53040E-02
 1.75213E-01
 7.24860E-02
 2.68150E-02
-1.55724E-01
-7.63400E-03
 6.64110E-02
-2.81820E-02
-4.16200E-03
 5.72950E-02
 7.97460E-02
-1.64570E-02
-1.08070E-02
 1.53634E-01
 5.61220E-02
 3.78580E-02
-8.74200E-03
 1.50719E-01
 7.76250E-02
 1.16894E-01
 8.60040E-02
 1.97378E-01
 1.51276E-01
 1.38083E-01
 1.92235E-01
 2.04315E-01
 2.64763E-01
 2.91952E-01
 3.30735E-01
-1.47816E-01
 3.21940E-02
-6.02280E-02
-1.12699E-01
-5.21700E-02
-1.09118E-01
-3.78360E-02
 1.93600E-03
 2.48737E-01
-5.82330E-02
-2.77162E-01
-7.80760E-02
 1.64580E-02
 2.93620E-02
-4.96330E-02
-2.68680E-02
-8.28830E-02
 1.79536E-01
 6.78880E-02
 4.03800E-03
-2.67395E-01
 1.68545E-01
 3.11670E-02
 7.20900E-03
 3.18000E-04
 1.16600E-03
 1.44180E-02
-1.39100E-03
-1.06557E-01
-7.11000E-04
 6.22370E-02
 1.06379E-01
 9.20540E-02
 1.08310E-01
 4.74150E-02
 2.47750E-02
 1.80880E-01
 1.60013E-01
 1.48740E-01
 2.25691E-01
 1.51070E-01
 2.47744E-01
 1.56149E-01
 2.33617E-01
 3.25946E-01
 4.43228E-01
 4.17412E-01
-1.84042E-01
-2.01159E-01
-4.91840E-02
-7.99790E-02
-4.14630E-02
 2.42930E-02
 2.50340E-02
-4.27520E-02
 3.14890E-02
-2.81659E-01
-1.03268E-01
 9.29800E-03
 5.98190E-02
-1.51990E-02
-4.69620E-02
-2.38350E-02
-1.38590E-02
 3.93150E-02
-5.88190E-02
-6.85000E-04
 2.26880E-02
 9.09230E-02
-5.59400E-03
 5.72960E-02
 4.80620E-02
-2.54360E-02
-6.26000E-03
 5.54000E-03
 3.09670E-02
-2.13480E-02
 5.85870E-02
 6.33560E-02
 1.29430E-01
 6.68600E-02
 1.72742E-01
 1.81918E-01
 1.55252E-01
 1.61882E-01
 1.49509E-01
 1.80705E-01
 2.09866E-01
 2.52940E-01
 2.16210E-01
 1.48992E-01
 2.70988E-01
 3.34351E-01
 4.05852E-01
-2.11711E-01
-1.07603E-01
-5.24110E-02
-1.10107E-01
-5.93400E-02
-2.14830E-02
-5.36270E-02
 7.96310E-02
-2.63270E-02
-4.47079E-01
 3.68360E-02
-9.18520E-02
-4.74970E-02
-1.86250E-02
-8.74520E-02
-4.93470E-02
-1.31470E-02
 1.25400E-02
-3.63200E-02
-1.74230E-02
 6.06280E-02
 2.66070E-02
-8.27300E-03
 5.32500E-03
-3.14410E-02
-2.05000E-02
-3.08190E-02
-2.22640E-02
-1.27287E-01
 6.13300E-03
 6.47360E-02
 6.84940E-02
 1.28520E-01
 3.56046E-01
 2.41776E-01
 1.68597E-01
 1.36098E-01
 1.86021E-01
 2.17962E-01
 1.97415E-01
 2.54012E-01
 2.15956E-01
 1.84759E-01
 2.06207E-01
 2.08677E-01
 4.00721E-01
 3.64847E-01
-1.73751E-01
-1.00180E-02
-9.81500E-02
-1.15400E-02
-2.49250E-02
-4.17840E-02
-1.66757E-01
 9.78470E-02
-5.63550E-02
-3.15684E-01
-3.56800E-03
 1.33900E-03
 1.19540E-02
-3.63540E-02
-1.84370E-02
-7.63000E-03
 1.30830E-02
-8.72900E-03
 5.55000E-03
-4.00100E-02
 1.04966E-01
 4.79300E-03
-1.68390E-02
-6.91150E-02
 9.51890E-02
 3.23700E-02
-6.37920E-02
-9.36640E-02
 4.32770E-02
 1.31698E-01
 8.07220E-02
 1.39958E-01
 2.91253E-01
 5.08780E-02
 2.78430E-02
 7.03010E-02
 1.82452E-01
 1.99761E-01
 1.72910E-01
 1.47507E-01
 1.69851E-01
 3.01134E-01
 3.01863E-01
 1.70569E-01
 3.01625E-01
 3.66347E-01
 4.12790E-01
-1.75457E-01
-1.36708E-01
-1.36971E-01
-1.39226E-01
-1.90829E-01
-1.20246E-01
-3.23680E-02
 4.77240E-02
-1.24467E-01
-2.10684E-01
-3.73960E-02
 9.35200E-03
-8.22800E-03
-1.56040E-02
-6.50870E-02
-4.17200E-03
-5.10030E-02
-6.43670E-02
 6.32950E-02
-8.49080E-02
-3.31450E-02
 3.68860E-02
-3.04540E-02
-9.43530E-02
 8.94900E-02
-1.43790E-02
-7.92100E-03
-2.87110E-02
 8.00480E-02
 2.36760E-02
 5.16840E-02
 8.80490E-02
-5.95140E-02
 3.64954E-01
 7.95380E-02
 1.13258E-01
 1.44357E-01
 2.17271E-01
 1.09212E-01
 2.20114E-01
 2.78408E-01
 1.93904E-01
 2.82180E-01
 2.02255E-01
 2.98737E-01
 3.70366E-01
 3.69000E-01
-1.01848E-01
-1.71526E-01
-1.68078E-01
-4.65350E-02
-1.24462E-01
-4.35810E-02
-4.57290E-02
-1.58822E-01
-3.73452E-01
-2.51029E-01
-5.36350E-02
 5.32280E-02
 6.17580E-02
-3.15820E-02
-2.51910E-02
-4.75930E-02
-3.03740E-02
 8.42800E-03
-1.13945E-01
-3.57260E-02
-1.17500E-03
-1.12510E-01
 2.00750E-02
-9.67330E-02
-4.45400E-02
 1.42500E-02
-7.76520E-02
 4.44380E-02
 4.71150E-02
 9.43000E-03
 1.12621E-01
 2.22440E-02
-3.44988E-01
 2.38954E-01
 6.49420E-02
 1.11593E-01
 1.19693E-01
 2.32209E-01
 1.90498E-01
 2.36092E-01
 2.61422E-01
 2.94034E-01
 2.61232E-01
 3.86477E-01
 4.64928E-01
 2.74104E-01
 3.77053E-01
-1.86753E-01
-2.50374E-01
-2.08714E-01
-1.65691E-01
-7.59570E-02
-2.06703E-01
-1.16554E-01
-1.98393E-01
-7.08020E-02
-2.44164E-01
-1.33869E-01
 9.03500E-03
 1.26296E-01
-5.44500E-02
-9.45500E-03
-1.35731E-01
-1.27070E-01
-5.39330E-02
-2.90910E-02
-6.22460E-02
-1.00220E-02
-4.00300E-03
 1.73740E-02
-1.40350E-02
-2.65150E-02
-1.22560E-02
 1.07447E-01
 4.23140E-02
-3.42550E-02
 1.80560E-02
 1.85161E-01
-7.66900E-02
-1.12013E-01
 1.45941E-01
 2.35238E-01
 8.87030E-02
 1.70827E-01
 1.82172E-01
 1.90278E-01
 3.31721E-01
 3.03753E-01
 9.76090E-02
 4.78273E-01
 4.10414E-01
 3.72529E-01
 2.49328E-01
 3.43752E-01
-1.04905E-01
-2.45413E-01
-2.54693E-01
-2.74414E-01
-2.23239E-01
-1.65594E-01
-7.59810E-02
 1.33229E-01
-3.63107E-01
-3.49195E-01
-7.89300E-02
-8.60430E-02
 2.18300E-02
-4.07000E-04
-5.01190E-02
-5.96510E-02
-7.05100E-03
 2.67000E-04
 9.40600E-03
-3.36090E-02
-7.50730E-02
-1.15810E-02
-3.78700E-02
-9.65310E-02
-1.10780E-01
-3.53420E-02
 4.13120E-02
 2.30560E-02
-3.26270E-02
 6.12510E-02
 1.67178E-01
-1.95860E-02
 1.88742E-01
 2.64673E-01
 2.76815E-01
 2.35947E-01
-1.09350E-02
 1.75202E-01
 1.77112E-01
 2.17404E-01
 1.50827E-01
 4.60173E-01
 4.80692E-01
 4.11831E-01
 4.02407E-01
 2.93320E-01
 4.01377E-01
-1.66900E-01
-1.83672E-01
-2.22675E-01
-2.70664E-01
-2.16560E-01
-2.44497E-01
-1.63729E-01
-2.34523E-01
-4.18793E-01
-9.53900E-02
-1.54695E-01
-7.80170E-02
-4.96210E-02
-1.08698E-01
-1.58333E-01
-3.87050E-02
 6.73300E-03
-6.03420E-02
-1.96130E-02
-9.75100E-02
 1.74600E-02
 1.92210E-02
-8.53430E-02
 6.02360E-02
-7.24600E-03
-3.78500E-02
-6.51420E-02
 6.30470E-02
 2.61690E-02
-1.90400E-02
-2.97050E-01
 1.15820E-01
 3.34945E-01
 3.25424E-01
 2.88408E-01
 2.39954E-01
 3.22444E-01
 1.70722E-01
 2.73802E-01
 2.40822E-01
 3.20168E-01
 4.41074E-01
 5.14459E-01
 3.76610E-01
 3.40269E-01
 4.19541E-01
 3.82593E-01
-1.63442E-01
-1.33066E-01
-2.24743E-01
-2.55657E-01
-1.87354E-01
-2.18074E-01
-1.42293E-01
-9.16550E-02
-1.27542E-01
-8.92580E-02
-1.71120E-01
-3.41183E-01
-9.25780E-02
-4.28840E-02
-1.67972E-01
 3.34550E-02
-1.47710E-02
-5.88800E-02
-4.96380E-02
 1.15390E-02
-8.80700E-03
 1.66200E-03
-4.71280E-02
-4.39720E-02
 6.61570E-02
 1.90350E-02
-3.67920E-02
-6.07540E-02
 4.59700E-02
 2.42220E-02
 8.13510E-02
 2.39484E-01
 3.39142E-01
 1.27434E-01
 6.99320E-02
 4.30123E-01
 3.00248E-01
 8.66840E-02
 1.45393E-01
 2.87727E-01
 4.04523E-01
 4.74073E-01
 4.76644E-01
 3.99915E-01
 3.69374E-01
 4.93375E-01
 4.52557E-01
-1.80396E-01
-2.14358E-01
-1.90946E-01
-2.45163E-01
-2.43347E-01
-2.19047E-01
-2.82380E-01
-8.08680E-02
-2.55325E-01
-2.79357E-01
-1.17235E-01
-9.21670E-02
-2.08536E-01
-5.75890E-02
-3.91050E-02
-3.29060E-02
 2.45270E-02
-1.73750E-02
-5.31800E-03
 7.73580E-02
-1.49410E-02
-8.28280E-02
 2.72970E-02
-1.05970E-02
-3.02560E-02
 5.53550E-02
-8.16000E-02
 5.60290E-02
 2.48180E-01
 1.50350E-01
 1.88897E-01
 2.15085E-01
 2.61843E-01
 3.10319E-01
 2.07396E-01
 3.06004E-01
 1.56169E-01
 1.64438E-01
 2.47124E-01
 3.39171E-01
 5.15533E-01
 4.18496E-01
 3.92710E-01
 3.37752E-01
 4.26144E-01
 4.89535E-01
 5.01801E-01
-2.45062E-01
-2.29600E-01
-1.73749E-01
-2.28260E-01
-2.77229E-01
-2.54565E-01
-1.59414E-01
-2.80306E-01
-4.11841E-01
-2.23254E-01
-1.49775E-01
-6.84610E-02
-6.03850E-02
-9.33730E-02
-1.80563E-01
 6.70500E-03
-2.00530E-02
 8.48700E-03
-3.98440E-02
-5.47030E-02
-1.00720E-02
 2.80600E-03
-1.17405E-01
-9.15470E-02
-1.09285E-01
-4.29550E-02
 1.78665E-01
 1.72868E-01
 1.89797E-01
 1.58690E-01
 7.10320E-02
 2.18410E-01
 2.95457E-01
 2.52904E-01
 1.03488E-01
 2.61782E-01
 2.00668E-01
 2.49655E-01
 2.20404E-01
 2.64518E-01
 2.68338E-01
 3.25081E-01
 4.63881E-01
 4.49892E-01
 4.56157E-01
 3.67968E-01
 4.81407E-01
-2.68796E-01
-3.19253E-01
-2.71843E-01
-1.87552E-01
-2.98590E-01
-2.19957E-01
-5.05310E-02
-4.00664E-01
-4.14811E-01
-1.91532E-01
-1.28371E-01
-1.86629E-01
-1.40343E-01
-1.82796E-01
-1.22370E-01
-1.18183E-01
-9.61960E-02
-2.57790E-02
-5.73640E-02
-1.42380E-02
-8.58740E-02
-8.49040E-02
-1.11247E-01
-3.49490E-02
-3.20860E-02
 9.08000E-02
 1.70503E-01
 2.68482E-01
 2.33986E-01
 1.57609E-01
 1.30214E-01
 3.13641E-01
 4.49339E-01
 3.20403E-01
 2.64261E-01
 2.82890E-01
 1.96631E-01
 2.60964E-01
 2.93089E-01
 2.70029E-01
 1.75726E-01
 3.69307E-01
 4.48305E-01
 4.17060E-01
 3.13652E-01
 5.62002E-01
 4.90776E-01
-2.41252E-01
-2.90212E-01
-2.48498E-01
-2.08929E-01
-2.54089E-01
-1.92017E-01
-2.35187E-01
-1.74968E-01
-2.17884E-01
-1.44647E-01
-1.85096E-01
-1.46898E-01
-9.09360E-02
-8.37530E-02
-1.38000E-03
-4.51450E-02
-5.90110E-02
-5.50250E-02
-4.28140E-02
 9.07150E-02
 9.42190E-02
 7.09490E-02
 1.07324E-01
 4.75900E-02
 1.14857E-01
 1.12196E-01
 1.31654E-01
 1.35616E-01
 1.29667E-01
 2.05079E-01
 3.12545E-01
 2.51616E-01
 2.93419E-01
 3.33700E-01
 3.82059E-01
 3.70133E-01
 2.26712E-01
 3.00398E-01
 2.76394E-01
 1.93600E-03
 2.12305E-01
 1.30300E-01
 5.90236E-01
 3.76499E-01
 5.51143E-01
 3.88644E-01
 4.54018E-01
-2.30389E-01
-3.77966E-01
-3.12366E-01
-2.45282E-01
-2.81391E-01
-2.52673E-01
-1.79465E-01
-1.91348E-01
-1.99438E-01
-1.85284E-01
-5.76110E-02
-1.05436E-01
-5.44540E-02
-8.44700E-02
-9.97980E-02
-4.78300E-03
 3.08250E-02
 1.00892E-01
 1.07422E-01
-6.24300E-03
 4.69680E-02
 1.22028E-01
 1.03322E-01
 2.54250E-02
 1.46805E-01
 8.56620E-02
 1.77619E-01
 5.58210E-02
 1.03423E-01
 1.04875E-01
-1.10124E-01
 2.12179E-01
 4.34727E-01
 5.05035E-01
 3.92417E-01
 3.71030E-01
 3.84805E-01
 3.47709E-01
 2.48992E-01
 2.52050E-01
 2.70784E-01
 5.00158E-01
 5.06097E-01
 4.73014E-01
 3.90039E-01
 3.03447E-01
 4.82968E-01
-1.59077E-01
-2.77455E-01
-2.67526E-01
-2.99450E-01
-2.63868E-01
-3.34783E-01
-4.83540E-02
-2.05538E-01
-3.06977E-01
-1.88890E-01
-4.87640E-02
-1.98374E-01
-1.04357E-01
-1.14352E-01
-2.83090E-02
 1.44191E-01
 1.47820E-01
 1.48221E-01
 7.83330E-02
 5.45280E-02
 6.28960E-02
 1.39408E-01
 1.69527E-01
 1.01965E-01
 1.31421E-01
 9.67090E-02
 1.74605E-01
 1.90155E-01
 1.49937E-01
 1.68080E-02
 5.25820E-02
 1.07639E-01
 4.37627E-01
 4.40990E-01
 4.14862E-01
 3.06397E-01
 4.65181E-01
 2.31656E-01
 1.85459E-01
 1.45467E-01
 3.34242E-01
 4.15671E-01
 3.44917E-01
 3.20310E-01
 4.44942E-01
 5.09597E-01
 4.19823E-01
-2.44771E-01
-3.88638E-01
-3.01534E-01
-1.35661E-01
-2.47774E-01
-3.79932E-01
-4.87270E-02
-5.23240E-02
-1.29273E-01
-1.16502E-01
-1.11977E-01
-8.03680E-02
-1.11505E-01
 4.24640E-02
-3.86000E-03
 5.61670E-02
 7.77310E-02
 9.19420E-02
 1.02077E-01
 1.06758E-01
 1.05020E-02
 6.34720E-02
 7.26000E-02
 6.51660E-02
 3.84300E-03
 1.45993E-01
 9.28880E-02
 1.47975E-01
 2.36051E-01
 1.34591E-01
 1.13540E-01
-1.55100E-03
 2.73428E-01
 3.08802E-01
 2.67260E-01
 3.11976E-01
 2.39390E-01
 8.91090E-02
 1.48213E-01
 2.69774E-01
 1.87155E-01
 2.84944E-01
 3.14185E-01
 3.72915E-01
 4.63041E-01
 5.69475E-01
 3.64112E-01
-5.10121E-01
-2.73840E-01
-2.90413E-01
-1.49396E-01
-2.60389E-01
-1.54117E-01
-1.58250E-02
-1.51220E-02
-7.30460E-02
-9.71110E-02
 7.05800E-03
-1.80996E-01
-1.18377E-01
-8.46570E-02
 2.61300E-02
 1.36591E-01
 2.20585E-01
 2.10310E-02
 4.62100E-03
 1.08254E-01
 8.13510E-02
 8.65000E-04
 4.20790E-02
 2.85470E-02
 4.51600E-02
 1.85724E-01
 1.39321E-01
 2.23527E-01
 1.79297E-01
 2.38359E-01
 1.16849E-01
 2.01080E-02
 3.11323E-01
 1.96167E-01
 2.35427E-01
 1.86233E-01
 3.39135E-01
 2.55635E-01
-7.34730E-02
 9.52110E-02
 2.46987E-01
 2.05130E-01
 6.36222E-01
 6.40945E-01
 5.56399E-01
 4.95779E-01
 1.77556E-01
-4.51524E-01
-4.19594E-01
-2.59587E-01
-2.46015E-01
-2.63625E-01
-3.19591E-01
 1.35592E-01
-1.61680E-02
-1.38532E-01
-1.20937E-01
-2.01125E-01
-1.80578E-01
-1.33258E-01
 6.11190E-02
-1.49080E-02
-4.33700E-03
 2.19545E-01
-6.67660E-02
 3.83760E-02
 2.35000E-03
 2.35000E-04
 7.11110E-02
 1.74165E-01
 1.36117E-01
 1.24586E-01
 1.22675E-01
 1.09513E-01
 2.23742E-01
 1.84800E-01
 1.87753E-01
 1.95535E-01
 1.63464E-01
 2.65945E-01
 1.27774E-01
 1.58994E-01
 1.49678E-01
 2.11740E-01
 1.47618E-01
 3.88600E-03
 3.21370E-02
-4.71370E-02
 2.24535E-01
 5.00484E-01
 5.47156E-01
 4.81104E-01
 3.68342E-01
 2.54517E-01
-4.59220E-01
-4.71411E-01
-1.75522E-01
-4.13209E-01
-2.35527E-01
-2.38131E-01
 1.24343E-01
 9.17790E-02
-7.31500E-03
-1.70847E-01
-1.13157E-01
-1.09353E-01
-3.39070E-02
-6.96430E-02
-9.82280E-02
 9.09600E-03
-6.54630E-02
-7.35350E-02
 6.33040E-02
 2.77000E-04
-1.88030E-02
 5.87850E-02
-3.48280E-02
 9.79810E-02
 2.27566E-01
 6.24900E-03
 1.65048E-01
 9.11150E-02
 2.93672E-01
 1.04151E-01
 1.57536E-01
 9.07350E-02
 3.05632E-01
 4.11931E-01
 1.47069E-01
 1.32166E-01
 1.84250E-01
-7.72700E-03
 2.86639E-01
 1.67410E-02
 2.44424E-01
 6.86300E-02
 5.48636E-01
 4.14072E-01
 4.07344E-01
 3.35162E-01
 1.84685E-01
-5.42768E-01
-2.97806E-01
-2.63728E-01
-2.86655E-01
-2.32344E-01
-4.85360E-02
-3.74400E-02
-1.10436E-01
-1.22957E-01
-1.57281E-01
-8.00000E-05
 4.21690E-02
-1.03310E-01
-6.67030E-02
-3.28300E-02
-9.06270E-02
-8.32300E-02
 6.02110E-02
 3.15160E-02
-4.29450E-02
-1.09010E-02
 5.61860E-02
 3.06324E-01
 1.01860E-01
 1.19071E-01
 5.79380E-02
 1.77581E-01
 2.79302E-01
 1.99807E-01
 2.05352E-01
 9.29820E-02
 1.66480E-01
 2.99064E-01
 3.34774E-01
 1.40102E-01
 5.19600E-02
 1.40332E-01
 1.66081E-01
 2.45125E-01
 1.24246E-01
 4.91810E-02
 6.41710E-02
 2.34871E-01
 2.00075E-01
 3.17106E-01
 3.70001E-01
 3.39881E-01
-7.35123E-01
-5.26170E-01
-3.69640E-01
-2.90857E-01
-1.69885E-01
-1.11825E-01
-7.61670E-02
 6.87760E-02
-5.77359E-01
-2.33510E-01
 1.22667E-01
-2.50540E-02
-4.04800E-03
-2.99500E-03
-6.05740E-02
-1.08086E-01
 7.07970E-02
-7.85940E-02
 3.09790E-02
-6.54630E-02
-2.45250E-02
 1.01431E-01
 1.95677E-01
 1.20130E-01
 1.03072E-01
 5.14590E-02
 1.10967E-01
 1.99899E-01
 1.68045E-01
 1.72534E-01
 2.39823E-01
 2.33655E-01
 3.68720E-01
 2.26121E-01
 2.70262E-01
 2.78997E-01
 3.12603E-01
 2.93334E-01
 3.25785E-01
 1.25869E-01
 1.86330E-02
-1.57967E-01
 8.35780E-02
 1.35807E-01
 8.83750E-02
 2.74052E-01
 1.52981E-01
-5.06887E-01
-3.89844E-01
-2.56253E-01
-5.96410E-02
-4.93830E-02
-2.59768E-01
-2.86610E-02
-5.07810E-02
-1.48445E-01
-2.51891E-01
-1.93628E-01
-8.39000E-02
 4.00340E-02
-1.16063E-01
 1.02644E-01
-9.09220E-02
 4.86910E-02
-8.21900E-03
-3.14700E-02
-9.21580E-02
-6.06430E-02
 5.96250E-02
 2.45242E-01
 1.95428E-01
 8.27490E-02
 4.55960E-02
 2.38690E-02
 1.02131E-01
 1.39313E-01
 2.65862E-01
 2.47009E-01
 1.06659E-01
 4.39130E-01
 3.10665E-01
 2.23992E-01
 2.67049E-01
 2.94651E-01
 1.61223E-01
 1.29523E-01
 1.68460E-02
 5.03080E-02
 2.51906E-01
 1.73738E-01
 1.78019E-01
 2.29564E-01
 1.62956E-01
 1.68654E-01
-2.69310E-01
-4.26614E-01
-2.31249E-01
-3.59146E-01
-3.09035E-01
-3.15517E-01
-1.26343E-01
 1.60461E-01
-6.31590E-02
-2.24686E-01
-2.93326E-01
-1.86695E-01
-1.01550E-01
-3.79120E-02
-8.15370E-02
 1.86260E-02
-5.66840E-02
-2.79830E-02
-3.01250E-02
-1.86297E-01
 7.85300E-03
 9.32120E-02
 1.51649E-01
 5.43740E-02
 1.41088E-01
 1.77719E-01
 1.91230E-02