# vtk DataFile Version 2.0
Output of NLACE
ASCII
DATASET UNSTRUCTURED_GRID
POINTS          121 FLOAT
 0.000000E+00  0.000000E+00  0.000000E+00
 5.000000E+00  0.000000E+00  0.000000E+00
 1.000000E+01  0.000000E+00  0.000000E+00
 1.500000E+01  0.000000E+00  0.000000E+00
 2.000000E+01  0.000000E+00  0.000000E+00
 2.500000E+01  0.000000E+00  0.000000E+00
 3.000000E+01  0.000000E+00  0.000000E+00
 3.500000E+01  0.000000E+00  0.000000E+00
 4.000000E+01  0.000000E+00  0.000000E+00
 4.500000E+01  0.000000E+00  0.000000E+00
 5.000000E+01  0.000000E+00  0.000000E+00
 0.000000E+00  5.000000E+00  0.000000E+00
 5.000000E+00  5.000000E+00  0.000000E+00
 1.000000E+01  5.000000E+00  0.000000E+00
 1.500000E+01  5.000000E+00  0.000000E+00
 2.000000E+01  5.000000E+00  0.000000E+00
 2.500000E+01  5.000000E+00  0.000000E+00
 3.000000E+01  5.000000E+00  0.000000E+00
 3.500000E+01  5.000000E+00  0.000000E+00
 4.000000E+01  5.000000E+00  0.000000E+00
 4.500000E+01  5.000000E+00  0.000000E+00
 5.000000E+01  5.000000E+00  0.000000E+00
 0.000000E+00  1.000000E+01  0.000000E+00
 5.000000E+00  1.000000E+01  0.000000E+00
 1.000000E+01  1.000000E+01  0.000000E+00
 1.500000E+01  1.000000E+01  0.000000E+00
 2.000000E+01  1.000000E+01  0.000000E+00
 2.500000E+01  1.000000E+01  0.000000E+00
 3.000000E+01  1.000000E+01  0.000000E+00
 3.500000E+01  1.000000E+01  0.000000E+00
 4.000000E+01  1.000000E+01  0.000000E+00
 4.500000E+01  1.000000E+01  0.000000E+00
 5.000000E+01  1.000000E+01  0.000000E+00
 0.000000E+00  1.500000E+01  0.000000E+00
 5.000000E+00  1.500000E+01  0.000000E+00
 1.000000E+01  1.500000E+01  0.000000E+00
 1.500000E+01  1.500000E+01  0.000000E+00
 2.000000E+01  1.500000E+01  0.000000E+00
 2.500000E+01  1.500000E+01  0.000000E+00
 3.000000E+01  1.500000E+01  0.000000E+00
 3.500000E+01  1.500000E+01  0.000000E+00
 4.000000E+01  1.500000E+01  0.000000E+00
 4.500000E+01  1.500000E+01  0.000000E+00
 5.000000E+01  1.500000E+01  0.000000E+00
 0.000000E+00  2.000000E+01  0.000000E+00
 5.000000E+00  2.000000E+01  0.000000E+00
 1.000000E+01  2.000000E+01  0.000000E+00
 1.500000E+01  2.000000E+01  0.000000E+00
 2.000000E+01  2.000000E+01  0.000000E+00
 2.500000E+01  2.000000E+01  0.000000E+00
 3.000000E+01  2.000000E+01  0.000000E+00
 3.500000E+01  2.000000E+01  0.000000E+00
 4.000000E+01  2.000000E+01  0.000000E+00
 4.500000E+01  2.000000E+01  0.000000E+00
 5.000000E+01  2.000000E+01  0.000000E+00
 0.000000E+00  2.500000E+01  0.000000E+00
 5.000000E+00  2.500000E+01  0.000000E+00
 1.000000E+01  2.500000E+01  0.000000E+00
 1.500000E+01  2.500000E+01  0.000000E+00
 2.000000E+01  2.500000E+01  0.000000E+00
 2.500000E+01  2.500000E+01  0.000000E+00
 3.000000E+01  2.500000E+01  0.000000E+00
 3.500000E+01  2.500000E+01  0.000000E+00
 4.000000E+01  2.500000E+01  0.000000E+00
 4.500000E+01  2.500000E+01  0.000000E+00
 5.000000E+01  2.500000E+01  0.000000E+00
 0.000000E+00  3.000000E+01  0.000000E+00
 5.000000E+00  3.000000E+01  0.000000E+00
 1.000000E+01  3.000000E+01  0.000000E+00
 1.500000E+01  3.000000E+01  0.000000E+00
 2.000000E+01  3.000000E+01  0.000000E+00
 2.500000E+01  3.000000E+01  0.000000E+00
 3.000000E+01  3.000000E+01  0.000000E+00
 3.500000E+01  3.000000E+01  0.000000E+00
 4.000000E+01  3.000000E+01  0.000000E+00
 4.500000E+01  3.000000E+01  0.000000E+00
 5.000000E+01  3.000000E+01  0.000000E+00
 0.000000E+00  3.500000E+01  0.000000E+00
 5.000000E+00  3.500000E+01  0.000000E+00
 1.000000E+01  3.500000E+01  0.000000E+00
 1.500000E+01  3.500000E+01  0.000000E+00
 2.000000E+01  3.500000E+01  0.000000E+00
 2.500000E+01  3.500000E+01  0.000000E+00
 3.000000E+01  3.500000E+01  0.000000E+00
 3.500000E+01  3.500000E+01  0.000000E+00
 4.000000E+01  3.500000E+01  0.000000E+00
 4.500000E+01  3.500000E+01  0.000000E+00
 5.000000E+01  3.500000E+01  0.000000E+00
 0.000000E+00  4.000000E+01  0.000000E+00
 5.000000E+00  4.000000E+01  0.000000E+00
 1.000000E+01  4.000000E+01  0.000000E+00
 1.500000E+01  4.000000E+01  0.000000E+00
 2.000000E+01  4.000000E+01  0.000000E+00
 2.500000E+01  4.000000E+01  0.000000E+00
 3.000000E+01  4.000000E+01  0.000000E+00
 3.500000E+01  4.000000E+01  0.000000E+00
 4.000000E+01  4.000000E+01  0.000000E+00
 4.500000E+01  4.000000E+01  0.000000E+00
 5.000000E+01  4.000000E+01  0.000000E+00
 0.000000E+00  4.500000E+01  0.000000E+00
 5.000000E+00  4.500000E+01  0.000000E+00
 1.000000E+01  4.500000E+01  0.000000E+00
 1.500000E+01  4.500000E+01  0.000000E+00
 2.000000E+01  4.500000E+01  0.000000E+00
 2.500000E+01  4.500000E+01  0.000000E+00
 3.000000E+01  4.500000E+01  0.000000E+00
 3.500000E+01  4.500000E+01  0.000000E+00
 4.000000E+01  4.500000E+01  0.000000E+00
 4.500000E+01  4.500000E+01  0.000000E+00
 5.000000E+01  4.500000E+01  0.000000E+00
 0.000000E+00  5.000000E+01  0.000000E+00
 5.000000E+00  5.000000E+01  0.000000E+00
 1.000000E+01  5.000000E+01  0.000000E+00
 1.500000E+01  5.000000E+01  0.000000E+00
 2.000000E+01  5.000000E+01  0.000000E+00
 2.500000E+01  5.000000E+01  0.000000E+00
 3.000000E+01  5.000000E+01  0.000000E+00
 3.500000E+01  5.000000E+01  0.000000E+00
 4.000000E+01  5.000000E+01  0.000000E+00
 4.500000E+01  5.000000E+01  0.000000E+00
 5.000000E+01  5.000000E+01  0.000000E+00
CELLS          100         500
4    0    1   12   11
4    1    2   13   12
4    2    3   14   13
4    3    4   15   14
4    4    5   16   15
4    5    6   17   16
4    6    7   18   17
4    7    8   19   18
4    8    9   20   19
4    9   10   21   20
4   11   12   23   22
4   12   13   24   23
4   13   14   25   24
4   14   15   26   25
4   15   16   27   26
4   16   17   28   27
4   17   18   29   28
4   18   19   30   29
4   19   20   31   30
4   20   21   32   31
4   22   23   34   33
4   23   24   35   34
4   24   25   36   35
4   25   26   37   36
4   26   27   38   37
4   27   28   39   38
4   28   29   40   39
4   29   30   41   40
4   30   31   42   41
4   31   32   43   42
4   33   34   45   44
4   34   35   46   45
4   35   36   47   46
4   36   37   48   47
4   37   38   49   48
4   38   39   50   49
4   39   40   51   50
4   40   41   52   51
4   41   42   53   52
4   42   43   54   53
4   44   45   56   55
4   45   46   57   56
4   46   47   58   57
4   47   48   59   58
4   48   49   60   59
4   49   50   61   60
4   50   51   62   61
4   51   52   63   62
4   52   53   64   63
4   53   54   65   64
4   55   56   67   66
4   56   57   68   67
4   57   58   69   68
4   58   59   70   69
4   59   60   71   70
4   60   61   72   71
4   61   62   73   72
4   62   63   74   73
4   63   64   75   74
4   64   65   76   75
4   66   67   78   77
4   67   68   79   78
4   68   69   80   79
4   69   70   81   80
4   70   71   82   81
4   71   72   83   82
4   72   73   84   83
4   73   74   85   84
4   74   75   86   85
4   75   76   87   86
4   77   78   89   88
4   78   79   90   89
4   79   80   91   90
4   80   81   92   91
4   81   82   93   92
4   82   83   94   93
4   83   84   95   94
4   84   85   96   95
4   85   86   97   96
4   86   87   98   97
4   88   89  100   99
4   89   90  101  100
4   90   91  102  101
4   91   92  103  102
4   92   93  104  103
4   93   94  105  104
4   94   95  106  105
4   95   96  107  106
4   96   97  108  107
4   97   98  109  108
4   99  100  111  110
4  100  101  112  111
4  101  102  113  112
4  102  103  114  113
4  103  104  115  114
4  104  105  116  115
4  105  106  117  116
4  106  107  118  117
4  107  108  119  118
4  108  109  120  119
CELL_TYPES          100
9
9
9
9
9
9
9
9
9
9
9
9
9
9
9
9
9
9
9
9
9
9
9
9
9
9
9
9
9
9
9
9
9
9
9
9
9
9
9
9
9
9
9
9
9
9
9
9
9
9
9
9
9
9
9
9
9
9
9
9
9
9
9
9
9
9
9
9
9
9
9
9
9
9
9
9
9
9
9
9
9
9
9
9
9
9
9
9
9
9
9
9
9
9
9
9
9
9
9
9
POINT_DATA          121
 SCALARS measuredDisp11 float  1                   
LOOKUP_TABLE default
 0.00000E+00
 0.00000E+00
 0.00000E+00
 0.00000E+00
 0.00000E+00
 0.00000E+00
 0.00000E+00
 0.00000E+00
 0.00000E+00
 0.00000E+00
 0.00000E+00
 1.16652E-01
 1.15966E-01
 1.13773E-01
 1.08881E-01
 1.02752E-01
 1.00602E-01
 1.02752E-01
 1.08881E-01
 1.13773E-01
 1.15966E-01
 1.16652E-01
 2.16110E-01
 2.16228E-01
 2.15864E-01
 2.18372E-01
 2.26802E-01
 2.29356E-01
 2.26802E-01
 2.18372E-01
 2.15864E-01
 2.16228E-01
 2.16110E-01
 2.96368E-01
 2.97905E-01
 3.00041E-01
 3.01860E-01
 2.99616E-01
 2.99279E-01
 2.99616E-01
 3.01860E-01
 3.00041E-01
 2.97905E-01
 2.96368E-01
 3.57199E-01
 3.57910E-01
 3.57307E-01
 3.55445E-01
 3.54385E-01
 3.53820E-01
 3.54385E-01
 3.55445E-01
 3.57307E-01
 3.57910E-01
 3.57199E-01
 4.05913E-01
 4.05957E-01
 4.06019E-01
 4.06025E-01
 4.06008E-01
 4.05997E-01
 4.06008E-01
 4.06025E-01
 4.06019E-01
 4.05957E-01
 4.05913E-01
 4.54578E-01
 4.53963E-01
 4.54748E-01
 4.56617E-01
 4.57624E-01
 4.58157E-01
 4.57624E-01
 4.56617E-01
 4.54748E-01
 4.53963E-01
 4.54578E-01
 5.15185E-01
 5.13972E-01
 5.12122E-01
 5.10291E-01
 5.12383E-01
 5.12654E-01
 5.12383E-01
 5.10291E-01
 5.12122E-01
 5.13972E-01
 5.15185E-01
 5.95424E-01
 5.95504E-01
 5.96934E-01
 5.94081E-01
 5.85171E-01
 5.82454E-01
 5.85171E-01
 5.94081E-01
 5.96934E-01
 5.95504E-01
 5.95424E-01
 6.93755E-01
 6.97704E-01
 6.98314E-01
 7.02689E-01
 7.09243E-01
 7.11605E-01
 7.09243E-01
 7.02689E-01
 6.98314E-01
 6.97704E-01
 6.93755E-01
 8.35324E-01
 8.08847E-01
 8.02428E-01
 8.07317E-01
 8.14999E-01
 8.18753E-01
 8.14999E-01
 8.07317E-01
 8.02428E-01
 8.08847E-01
 8.35324E-01
 SCALARS measuredDisp12 float  1                   
LOOKUP_TABLE default
 0.00000E+00
 0.00000E+00
 0.00000E+00
 0.00000E+00
 0.00000E+00
 0.00000E+00
 0.00000E+00
 0.00000E+00
 0.00000E+00
 0.00000E+00
 0.00000E+00
 0.00000E+00
 6.65400E-03
 1.30130E-02
 1.68380E-02
 1.17490E-02
 0.00000E+00
-1.17490E-02
-1.68380E-02
-1.30130E-02
-6.65400E-03
 0.00000E+00
 0.00000E+00
 1.34630E-02
 2.61650E-02
 3.42460E-02
 2.26190E-02
 0.00000E+00
-2.26190E-02
-3.42460E-02
-2.61650E-02
-1.34630E-02
 0.00000E+00
 0.00000E+00
 1.81390E-02
 4.03060E-02
 4.66240E-02
 2.44710E-02
 0.00000E+00
-2.44710E-02
-4.66240E-02
-4.03060E-02
-1.81390E-02
 0.00000E+00
 0.00000E+00
 2.07110E-02
 5.51910E-02
 4.79670E-02
 2.50280E-02
 0.00000E+00
-2.50280E-02
-4.79670E-02
-5.51910E-02
-2.07110E-02
 0.00000E+00
 0.00000E+00
 2.22520E-02
 5.96480E-02
 4.85230E-02
 2.50400E-02
-0.00000E+00
-2.50400E-02
-4.85230E-02
-5.96480E-02
-2.22520E-02
 0.00000E+00
 0.00000E+00
 2.05020E-02
 5.50920E-02
 4.80000E-02
 2.50860E-02
-0.00000E+00
-2.50860E-02
-4.80000E-02
-5.50920E-02
-2.05020E-02
 0.00000E+00
 0.00000E+00
 1.75040E-02
 3.99730E-02
 4.67680E-02
 2.46520E-02
-0.00000E+00
-2.46520E-02
-4.67680E-02
-3.99730E-02
-1.75040E-02
 0.00000E+00
 0.00000E+00
 1.17820E-02
 2.53230E-02
 3.49500E-02
 2.31680E-02
-0.00000E+00
-2.31680E-02
-3.49500E-02
-2.53230E-02
-1.17820E-02
 0.00000E+00
 0.00000E+00
 2.15500E-03
 1.26320E-02
 1.84450E-02
 1.32270E-02
-0.00000E+00
-1.32270E-02
-1.84450E-02
-1.26320E-02
-2.15500E-03
 0.00000E+00
 0.00000E+00
 0.00000E+00
 0.00000E+00
 0.00000E+00
 0.00000E+00
 0.00000E+00
 0.00000E+00
 0.00000E+00
 0.00000E+00
 0.00000E+00
 0.00000E+00
 SCALARS predictedDisp11 float  1                  
LOOKUP_TABLE default
 0.00000E+00
 0.00000E+00
 0.00000E+00
 0.00000E+00
 0.00000E+00
 0.00000E+00
 0.00000E+00
 0.00000E+00
 0.00000E+00
 0.00000E+00
 0.00000E+00
 1.04614E-01
 1.04643E-01
 1.04717E-01
 1.04808E-01
 1.04881E-01
 1.04909E-01
 1.04881E-01
 1.04808E-01
 1.04717E-01
 1.04643E-01
 1.04614E-01
 2.09260E-01
 2.09311E-01
 2.09444E-01
 2.09606E-01
 2.09736E-01
 2.09785E-01
 2.09736E-01
 2.09606E-01
 2.09444E-01
 2.09311E-01
 2.09260E-01
 3.13885E-01
 3.13964E-01
 3.14166E-01
 3.14412E-01
 3.14605E-01
 3.14679E-01
 3.14605E-01
 3.14412E-01
 3.14166E-01
 3.13964E-01
 3.13885E-01
 4.18469E-01
 4.18585E-01
 4.18882E-01
 4.19232E-01
 4.19503E-01
 4.19603E-01
 4.19503E-01
 4.19232E-01
 4.18882E-01
 4.18585E-01
 4.18469E-01
 5.23019E-01
 5.23191E-01
 5.23606E-01
 5.24071E-01
 5.24406E-01
 5.24527E-01
 5.24406E-01
 5.24071E-01
 5.23606E-01
 5.23191E-01
 5.23019E-01
 6.27629E-01
 6.27853E-01
 6.28402E-01
 6.28908E-01
 6.29222E-01
 6.29315E-01
 6.29222E-01
 6.28908E-01
 6.28402E-01
 6.27853E-01
 6.27629E-01
 7.32497E-01
 7.32879E-01
 7.33379E-01
 7.33697E-01
 7.33660E-01
 7.33608E-01
 7.33660E-01
 7.33697E-01
 7.33379E-01
 7.32879E-01
 7.32497E-01
 8.38736E-01
 8.38661E-01
 8.39036E-01
 8.38024E-01
 8.37048E-01
 8.36678E-01
 8.37048E-01
 8.38024E-01
 8.39036E-01
 8.38661E-01
 8.38736E-01
 9.46863E-01
 9.48887E-01
 9.44532E-01
 9.40541E-01
 9.38186E-01
 9.37416E-01
 9.38186E-01
 9.40541E-01
 9.44532E-01
 9.48887E-01
 9.46863E-01
 1.08578E+00
 1.05830E+00
 1.04513E+00
 1.03880E+00
 1.03564E+00
 1.03466E+00
 1.03564E+00
 1.03880E+00
 1.04513E+00
 1.05830E+00
 1.08578E+00
 SCALARS predictedDisp12 float  1                  
LOOKUP_TABLE default
 0.00000E+00
 0.00000E+00
 0.00000E+00
 0.00000E+00
 0.00000E+00
 0.00000E+00
 0.00000E+00
 0.00000E+00
 0.00000E+00
 0.00000E+00
 0.00000E+00
 0.00000E+00
-6.07906E-05
-9.79534E-05
-9.74562E-05
-5.99851E-05
 7.25360E-17
 5.99851E-05
 9.74562E-05
 9.79534E-05
 6.07906E-05
 0.00000E+00
 0.00000E+00
-1.65649E-04
-2.66398E-04
-2.64417E-04
-1.62446E-04
 1.45086E-16
 1.62446E-04
 2.64417E-04
 2.66398E-04
 1.65649E-04
 0.00000E+00
 0.00000E+00
-3.25159E-04
-5.20728E-04
-5.14273E-04
-3.14679E-04
 2.13467E-16
 3.14679E-04
 5.14273E-04
 5.20728E-04
 3.25159E-04
 0.00000E+00
 0.00000E+00
-5.68542E-04
-9.02699E-04
-8.82222E-04
-5.35489E-04
 2.47342E-16
 5.35489E-04
 8.82222E-04
 9.02699E-04
 5.68542E-04
 0.00000E+00
 0.00000E+00
-9.43837E-04
-1.47163E-03
-1.40902E-03
-8.41084E-04
 2.71675E-16
 8.41084E-04
 1.40902E-03
 1.47163E-03
 9.43837E-04
 0.00000E+00
 0.00000E+00
-1.52298E-03
-2.29249E-03
-2.10152E-03
-1.21629E-03
 2.37795E-16
 1.21629E-03
 2.10152E-03
 2.29249E-03
 1.52298E-03
 0.00000E+00
 0.00000E+00
-2.42925E-03
-3.36698E-03
-2.85355E-03
-1.53704E-03
 1.75776E-16
 1.53704E-03
 2.85355E-03
 3.36698E-03
 2.42925E-03
 0.00000E+00
 0.00000E+00
-3.79103E-03
-4.52994E-03
-3.12135E-03
-1.56189E-03
 1.38127E-16
 1.56189E-03
 3.12135E-03
 4.52994E-03
 3.79103E-03
 0.00000E+00
 0.00000E+00
-6.12658E-03
-3.73695E-03
-2.22173E-03
-1.02875E-03
 1.11261E-16
 1.02875E-03
 2.22173E-03
 3.73695E-03
 6.12658E-03
 0.00000E+00
 0.00000E+00
 0.00000E+00
 0.00000E+00
 0.00000E+00
 0.00000E+00
 0.00000E+00
 0.00000E+00
 0.00000E+00
 0.00000E+00
 0.00000E+00
 0.00000E+00
 SCALARS dual11 float  1                           
LOOKUP_TABLE default
 0.00000E+00
 0.00000E+00
 0.00000E+00
 0.00000E+00
 0.00000E+00
 0.00000E+00
 0.00000E+00
 0.00000E+00
 0.00000E+00
 0.00000E+00
 0.00000E+00
-2.80316E+01
-2.80370E+01
-2.80521E+01
-2.80735E+01
-2.80928E+01
-2.81003E+01
-2.80928E+01
-2.80735E+01
-2.80521E+01
-2.80370E+01
-2.80316E+01
-5.62627E+01
-5.62633E+01
-5.62631E+01
-5.62547E+01
-5.62384E+01
-5.62308E+01
-5.62384E+01
-5.62547E+01
-5.62631E+01
-5.62633E+01
-5.62627E+01
-8.45799E+01
-8.45767E+01
-8.45704E+01
-8.45658E+01
-8.45660E+01
-8.45664E+01
-8.45660E+01
-8.45658E+01
-8.45704E+01
-8.45767E+01
-8.45799E+01
-1.12423E+02
-1.12425E+02
-1.12434E+02
-1.12450E+02
-1.12465E+02
-1.12471E+02
-1.12465E+02
-1.12450E+02
-1.12434E+02
-1.12425E+02
-1.12423E+02
-1.38766E+02
-1.38771E+02
-1.38784E+02
-1.38800E+02
-1.38813E+02
-1.38818E+02
-1.38813E+02
-1.38800E+02
-1.38784E+02
-1.38771E+02
-1.38766E+02
-1.62310E+02
-1.62317E+02
-1.62331E+02
-1.62343E+02
-1.62351E+02
-1.62354E+02
-1.62351E+02
-1.62343E+02
-1.62331E+02
-1.62317E+02
-1.62310E+02
-1.81764E+02
-1.81771E+02
-1.81787E+02
-1.81803E+02
-1.81813E+02
-1.81816E+02
-1.81813E+02
-1.81803E+02
-1.81787E+02
-1.81771E+02
-1.81764E+02
-1.96116E+02
-1.96107E+02
-1.96087E+02
-1.96070E+02
-1.96067E+02
-1.96067E+02
-1.96067E+02
-1.96070E+02
-1.96087E+02
-1.96107E+02
-1.96116E+02
-2.04816E+02
-2.04784E+02
-2.04698E+02
-2.04588E+02
-2.04495E+02
-2.04459E+02
-2.04495E+02
-2.04588E+02
-2.04698E+02
-2.04784E+02
-2.04816E+02
-2.07707E+02
-2.07666E+02
-2.07549E+02
-2.07394E+02
-2.07259E+02
-2.07205E+02
-2.07259E+02
-2.07394E+02
-2.07549E+02
-2.07666E+02
-2.07707E+02
 SCALARS dual12 float  1                           
LOOKUP_TABLE default
 0.00000E+00
 0.00000E+00
 0.00000E+00
 0.00000E+00
 0.00000E+00
 0.00000E+00
 0.00000E+00
 0.00000E+00
 0.00000E+00
 0.00000E+00
 0.00000E+00
 0.00000E+00
 3.41822E-03
 6.25634E-03
 7.70824E-03
 5.52919E-03
-1.79698E-14
-5.52919E-03
-7.70824E-03
-6.25634E-03
-3.41822E-03
 0.00000E+00
 0.00000E+00
 7.52414E-03
 1.16702E-02
 1.09994E-02
 6.40619E-03
-2.58581E-14
-6.40619E-03
-1.09994E-02
-1.16702E-02
-7.52414E-03
 0.00000E+00
 0.00000E+00
 6.43004E-03
 8.65286E-03
 6.16544E-03
 2.56131E-03
-2.69097E-14
-2.56131E-03
-6.16544E-03
-8.65286E-03
-6.43004E-03
 0.00000E+00
 0.00000E+00
 7.85338E-03
 1.31053E-02
 1.34776E-02
 8.46414E-03
-3.66636E-14
-8.46414E-03
-1.34776E-02
-1.31053E-02
-7.85338E-03
 0.00000E+00
 0.00000E+00
 1.57603E-02
 2.73602E-02
 2.90086E-02
 1.85747E-02
-4.94928E-14
-1.85747E-02
-2.90086E-02
-2.73602E-02
-1.57603E-02
 0.00000E+00
 0.00000E+00
 2.73423E-02
 4.48005E-02
 4.53911E-02
 2.83066E-02
-3.40539E-14
-2.83066E-02
-4.53911E-02
-4.48005E-02
-2.73423E-02
 0.00000E+00
 0.00000E+00
 4.25310E-02
 6.76071E-02
 6.57726E-02
 3.97192E-02
-1.93069E-14
-3.97192E-02
-6.57726E-02
-6.76071E-02
-4.25310E-02
 0.00000E+00
 0.00000E+00
 5.13231E-02
 8.40819E-02
 8.51890E-02
 5.30852E-02
-1.78667E-14
-5.30852E-02
-8.51890E-02
-8.40819E-02
-5.13231E-02
 0.00000E+00
 0.00000E+00
 3.66417E-02
 6.25552E-02
 6.68527E-02
 4.34285E-02
-3.24984E-15
-4.34285E-02
-6.68527E-02
-6.25552E-02
-3.66417E-02
 0.00000E+00
 0.00000E+00
 0.00000E+00
 0.00000E+00
 0.00000E+00
 0.00000E+00
 0.00000E+00
 0.00000E+00
 0.00000E+00
 0.00000E+00
 0.00000E+00
 0.00000E+00
 SCALARS NLP float  1                              
LOOKUP_TABLE default
 2.00000E+00
 2.00000E+00
 2.00000E+00
 2.00000E+00
 2.00000E+00
 2.00000E+00
 2.00000E+00
 2.00000E+00
 2.00000E+00
 2.00000E+00
 2.00000E+00
 2.00000E+00
 2.00000E+00
 2.00000E+00
 2.00000E+00
 2.00000E+00
 2.00000E+00
 2.00000E+00
 2.00000E+00
 2.00000E+00
 2.00000E+00
 2.00000E+00
 2.00000E+00
 2.00000E+00
 2.00000E+00
 2.00000E+00
 2.00000E+00
 2.00000E+00
 2.00000E+00
 2.00000E+00
 2.00000E+00
 2.00000E+00
 2.00000E+00
 2.00000E+00
 2.00000E+00
 2.00000E+00
 2.00000E+00
 2.00000E+00
 2.00000E+00
 2.00000E+00
 2.00000E+00
 2.00000E+00
 2.00000E+00
 2.00000E+00
 2.00000E+00
 2.00000E+00
 2.00000E+00
 2.00000E+00
 2.00000E+00
 2.00000E+00
 2.00000E+00
 2.00000E+00
 2.00000E+00
 2.00000E+00
 2.00000E+00
 2.00000E+00
 2.00000E+00
 2.00000E+00
 2.00000E+00
 2.00000E+00
 2.00000E+00
 2.00000E+00
 2.00000E+00
 2.00000E+00
 2.00000E+00
 2.00000E+00
 2.00000E+00
 2.00000E+00
 2.00000E+00
 2.00000E+00
 2.00000E+00
 2.00000E+00
 2.00000E+00
 2.00000E+00
 2.00000E+00
 2.00000E+00
 2.00000E+00
 2.00000E+00
 2.00000E+00
 2.00000E+00
 2.00000E+00
 2.00000E+00
 2.00000E+00
 2.00000E+00
 2.00000E+00
 2.00000E+00
 2.00000E+00
 2.00000E+00
 2.00000E+00
 2.00000E+00
 2.00000E+00
 2.00000E+00
 2.00000E+00
 2.00000E+00
 2.00000E+00
 2.00000E+00
 2.00000E+00
 2.00000E+00
 2.00000E+00
 2.00000E+00
 2.00000E+00
 2.00000E+00
 2.00000E+00
 2.00000E+00
 2.00000E+00
 2.00000E+00
 2.00000E+00
 2.00000E+00
 2.00000E+00
 2.00000E+00
 2.00000E+00
 2.00000E+00
 2.00000E+00
 2.00000E+00
 2.00000E+00
 2.00000E+00
 2.00000E+00
 2.00000E+00
 2.00000E+00
 2.00000E+00
 2.00000E+00
 SCALARS SM float  1                               
LOOKUP_TABLE default
 1.05000E+00
 1.05000E+00
 1.05000E+00
 1.05000E+00
 1.05000E+00
 1.05000E+00
 1.05000E+00
 1.05000E+00
 1.05000E+00
 1.05000E+00
 1.05000E+00
 1.05000E+00
 1.05000E+00
 1.05000E+00
 1.05000E+00
 1.05000E+00
 1.05000E+00
 1.05000E+00
 1.05000E+00
 1.05000E+00
 1.05000E+00
 1.05000E+00
 1.05000E+00
 1.05000E+00
 1.05000E+00
 1.05000E+00
 1.05000E+00
 1.05000E+00
 1.05000E+00
 1.05000E+00
 1.05000E+00
 1.05000E+00
 1.05000E+00
 1.05000E+00
 1.05000E+00
 1.05000E+00
 1.05000E+00
 1.05000E+00
 1.05000E+00
 1.05000E+00
 1.05000E+00
 1.05000E+00
 1.05000E+00
 1.05000E+00
 1.05000E+00
 1.05000E+00
 1.05000E+00
 1.05000E+00
 1.05000E+00
 1.05000E+00
 1.05000E+00
 1.05000E+00
 1.05000E+00
 1.05000E+00
 1.05000E+00
 1.05000E+00
 1.05000E+00
 1.05000E+00
 1.05000E+00
 1.05000E+00
 1.05000E+00
 1.05000E+00
 1.05000E+00
 1.05000E+00
 1.05000E+00
 1.05000E+00
 1.05000E+00
 1.05000E+00
 1.05000E+00
 1.05000E+00
 1.05000E+00
 1.05000E+00
 1.05000E+00
 1.05000E+00
 1.05000E+00
 1.05000E+00
 1.05000E+00
 1.05000E+00
 1.05000E+00
 1.05000E+00
 1.05000E+00
 1.05000E+00
 1.05000E+00
 1.05000E+00
 1.05000E+00
 1.05000E+00
 1.05000E+00
 1.05000E+00
 1.05000E+00
 1.05000E+00
 1.05000E+00
 1.05000E+00
 1.05000E+00
 1.05000E+00
 1.05000E+00
 1.05000E+00
 1.05000E+00
 1.05000E+00
 1.05000E+00
 1.05000E+00
 1.05000E+00
 1.05000E+00
 1.05000E+00
 1.05000E+00
 1.05000E+00
 1.05000E+00
 1.05000E+00
 1.05000E+00
 1.05000E+00
 1.05000E+00
 1.05000E+00
 1.05000E+00
 1.05000E+00
 1.05000E+00
 1.05000E+00
 1.05000E+00
 1.05000E+00
 1.05000E+00
 1.05000E+00
 1.05000E+00
 1.05000E+00
 SCALARS gradient1 float  1                        
LOOKUP_TABLE default
 0.00000E+00
 0.00000E+00
 0.00000E+00
 0.00000E+00
 0.00000E+00
 0.00000E+00
 0.00000E+00
 0.00000E+00
 0.00000E+00
 0.00000E+00
 0.00000E+00
 0.00000E+00
 0.00000E+00
 0.00000E+00
 0.00000E+00
 0.00000E+00
 0.00000E+00
 0.00000E+00
 0.00000E+00
 0.00000E+00
 0.00000E+00
 0.00000E+00
 0.00000E+00
 0.00000E+00
 0.00000E+00
 0.00000E+00
 0.00000E+00
 0.00000E+00
 0.00000E+00
 0.00000E+00
 0.00000E+00
 0.00000E+00
 0.00000E+00
 0.00000E+00
 0.00000E+00
 0.00000E+00
 0.00000E+00
 0.00000E+00
 0.00000E+00
 0.00000E+00
 0.00000E+00
 0.00000E+00
 0.00000E+00
 0.00000E+00
 0.00000E+00
 0.00000E+00
 0.00000E+00
 0.00000E+00
 0.00000E+00
 0.00000E+00
 0.00000E+00
 0.00000E+00
 0.00000E+00
 0.00000E+00
 0.00000E+00
 0.00000E+00
 0.00000E+00
 0.00000E+00
 0.00000E+00
 0.00000E+00
 0.00000E+00
 0.00000E+00
 0.00000E+00
 0.00000E+00
 0.00000E+00
 0.00000E+00
 0.00000E+00
 0.00000E+00
 0.00000E+00
 0.00000E+00
 0.00000E+00
 0.00000E+00
 0.00000E+00
 0.00000E+00
 0.00000E+00
 0.00000E+00
 0.00000E+00
 0.00000E+00
 0.00000E+00
 0.00000E+00
 0.00000E+00
 0.00000E+00
 0.00000E+00
 0.00000E+00
 0.00000E+00
 0.00000E+00
 0.00000E+00
 0.00000E+00
 0.00000E+00
 0.00000E+00
 0.00000E+00
 0.00000E+00
 0.00000E+00
 0.00000E+00
 0.00000E+00
 0.00000E+00
 0.00000E+00
 0.00000E+00
 0.00000E+00
 0.00000E+00
 0.00000E+00
 0.00000E+00
 0.00000E+00
 0.00000E+00
 0.00000E+00
 0.00000E+00
 0.00000E+00
 0.00000E+00
 0.00000E+00
 0.00000E+00
 0.00000E+00
 0.00000E+00
 0.00000E+00
 0.00000E+00
 0.00000E+00
 0.00000E+00
 0.00000E+00
 0.00000E+00
 0.00000E+00
 0.00000E+00
 0.00000E+00
 SCALARS gradient2 float  1                        
LOOKUP_TABLE default
-7.33068E-01
-1.46684E+00
-1.46874E+00
-1.47120E+00
-1.47328E+00
-1.47410E+00
-1.47328E+00
-1.47120E+00
-1.46874E+00
-1.46684E+00
-7.33068E-01
-1.47067E+00
-2.94245E+00
-2.94523E+00
-2.94836E+00
-2.95059E+00
-2.95139E+00
-2.95059E+00
-2.94836E+00
-2.94523E+00
-2.94245E+00
-1.47067E+00
-1.47646E+00
-2.95430E+00
-2.95783E+00
-2.96203E+00
-2.96532E+00
-2.96655E+00
-2.96532E+00
-2.96203E+00
-2.95783E+00
-2.95430E+00
-1.47646E+00
-1.46371E+00
-2.93048E+00
-2.93847E+00
-2.94826E+00
-2.95615E+00
-2.95915E+00
-2.95615E+00
-2.94826E+00
-2.93847E+00
-2.93048E+00
-1.46371E+00
-1.40838E+00
-2.82174E+00
-2.83405E+00
-2.84793E+00
-2.85805E+00
-2.86168E+00
-2.85805E+00
-2.84793E+00
-2.83405E+00
-2.82174E+00
-1.40838E+00
-1.29163E+00
-2.59033E+00
-2.60697E+00
-2.62380E+00
-2.63485E+00
-2.63851E+00
-2.63485E+00
-2.62380E+00
-2.60697E+00
-2.59033E+00
-1.29163E+00
-1.10801E+00
-2.22651E+00
-2.24795E+00
-2.26612E+00
-2.27507E+00
-2.27736E+00
-2.27507E+00
-2.26612E+00
-2.24795E+00
-2.22651E+00
-1.10801E+00
-8.67962E-01
-1.74824E+00
-1.77130E+00
-1.78115E+00
-1.78087E+00
-1.77972E+00
-1.78087E+00
-1.78115E+00
-1.77130E+00
-1.74824E+00
-8.67962E-01
-5.92619E-01
-1.20324E+00
-1.21267E+00
-1.19967E+00
-1.18592E+00
-1.18109E+00
-1.18592E+00
-1.19967E+00
-1.21267E+00
-1.20324E+00
-5.92619E-01
-3.13500E-01
-6.22748E-01
-6.08055E-01
-5.85147E-01
-5.72018E-01
-5.67665E-01
-5.72018E-01
-5.85147E-01
-6.08055E-01
-6.22748E-01
-3.13500E-01
-9.19343E-02
-1.62306E-01
-1.46926E-01
-1.39893E-01
-1.36365E-01
-1.35152E-01
-1.36365E-01
-1.39893E-01
-1.46926E-01
-1.62306E-01
-9.19343E-02
CELL_DATA         100
SCALARS elemDataMatch  float  1
LOOKUP_TABLE default
 5.68643E-04
 4.34410E-04
 1.88188E-04
 1.72949E-05
 4.47857E-05
 4.47857E-05
 1.72949E-05
 1.88188E-04
 4.34410E-04
 5.68643E-04
 1.10109E-03
 9.03330E-04
 6.33971E-04
 7.70755E-04
 1.19764E-03
 1.19764E-03
 7.70755E-04
 6.33971E-04
 9.03330E-04
 1.10109E-03
 8.90987E-04
 7.16021E-04
 5.63584E-04
 7.63079E-04
 1.20228E-03
 1.20228E-03
 7.63079E-04
 5.63584E-04
 7.16021E-04
 8.90987E-04
 2.09304E-02
 2.03616E-02
 2.05969E-02
 2.18009E-02
 2.29549E-02
 2.29549E-02
 2.18009E-02
 2.05969E-02
 2.03616E-02
 2.09304E-02
 1.02461E-01
 1.02910E-01
 1.04980E-01
 1.07294E-01
 1.08629E-01
 1.08629E-01
 1.07294E-01
 1.04980E-01
 1.02910E-01
 1.02461E-01
 2.67277E-01
 2.68270E-01
 2.67414E-01
 2.66121E-01
 2.65443E-01
 2.65443E-01
 2.66121E-01
 2.67414E-01
 2.68270E-01
 2.67277E-01
 4.81249E-01
 4.86989E-01
 4.90868E-01
 4.88464E-01
 4.83986E-01
 4.83986E-01
 4.88464E-01
 4.90868E-01
 4.86989E-01
 4.81249E-01
 6.65778E-01
 6.69599E-01
 6.77182E-01
 6.91749E-01
 7.03668E-01
 7.03668E-01
 6.91749E-01
 6.77182E-01
 6.69599E-01
 6.65778E-01
 7.66964E-01
 7.54440E-01
 7.35274E-01
 7.24173E-01
 7.21973E-01
 7.21973E-01
 7.24173E-01
 7.35274E-01
 7.54440E-01
 7.66964E-01
 7.87843E-01
 7.65064E-01
 7.17514E-01
 6.59854E-01
 6.20744E-01
 6.20744E-01
 6.59854E-01
 7.17514E-01
 7.65064E-01
 7.87843E-01
SCALARS elemRegul  float  1
LOOKUP_TABLE default
 0.00000E+00
 0.00000E+00
 0.00000E+00
 0.00000E+00
 0.00000E+00
 0.00000E+00
 0.00000E+00
 0.00000E+00
 0.00000E+00
 0.00000E+00
 0.00000E+00
 0.00000E+00
 0.00000E+00
 0.00000E+00
 0.00000E+00
 0.00000E+00
 0.00000E+00
 0.00000E+00
 0.00000E+00
 0.00000E+00
 0.00000E+00
 0.00000E+00
 0.00000E+00
 0.00000E+00
 0.00000E+00
 0.00000E+00
 0.00000E+00
 0.00000E+00
 0.00000E+00
 0.00000E+00
 0.00000E+00
 0.00000E+00
 0.00000E+00
 0.00000E+00
 0.00000E+00
 0.00000E+00
 0.00000E+00
 0.00000E+00
 0.00000E+00
 0.00000E+00
 0.00000E+00
 0.00000E+00
 0.00000E+00
 0.00000E+00
 0.00000E+00
 0.00000E+00
 0.00000E+00
 0.00000E+00
 0.00000E+00
 0.00000E+00
 0.00000E+00
 0.00000E+00
 0.00000E+00
 0.00000E+00
 0.00000E+00
 0.00000E+00
 0.00000E+00
 0.00000E+00
 0.00000E+00
 0.00000E+00
 0.00000E+00
 0.00000E+00
 0.00000E+00
 0.00000E+00
 0.00000E+00
 0.00000E+00
 0.00000E+00
 0.00000E+00
 0.00000E+00
 0.00000E+00
 0.00000E+00
 0.00000E+00
 0.00000E+00
 0.00000E+00
 0.00000E+00
 0.00000E+00
 0.00000E+00
 0.00000E+00
 0.00000E+00
 0.00000E+00
 0.00000E+00
 0.00000E+00
 0.00000E+00
 0.00000E+00
 0.00000E+00
 0.00000E+00
 0.00000E+00
 0.00000E+00
 0.00000E+00
 0.00000E+00
 0.00000E+00
 0.00000E+00
 0.00000E+00
 0.00000E+00
 0.00000E+00
 0.00000E+00
 0.00000E+00
 0.00000E+00
 0.00000E+00
 0.00000E+00
SCALARS l2grad2  float  1
LOOKUP_TABLE default
 2.31296E-18
 5.78241E-18
 2.69846E-18
 4.62593E-18
 3.85494E-18
 5.78241E-18
 8.09538E-18
 2.31296E-18
 6.93889E-18
 3.85494E-18
 3.46945E-18
 4.62593E-18
 6.93889E-18
 3.85494E-18
 8.48087E-18
 4.62593E-18
 7.70988E-18
 6.16791E-18
 8.86636E-18
 8.48087E-18
 2.31296E-18
 5.78241E-18
 2.69846E-18
 4.62593E-18
 3.85494E-18
 5.78241E-18
 8.09538E-18
 2.31296E-18
 6.93889E-18
 3.85494E-18
 4.62593E-18
 4.24044E-18
 6.55340E-18
 4.24044E-18
 7.32439E-18
 4.24044E-18
 7.32439E-18
 6.55340E-18
 7.70988E-18
 7.32439E-18
 2.31296E-18
 5.78241E-18
 2.69846E-18
 4.62593E-18
 3.85494E-18
 5.78241E-18
 8.09538E-18
 2.31296E-18
 6.93889E-18
 3.85494E-18
 1.15648E-18
 5.39692E-18
 2.69846E-18
 2.69846E-18
 2.31296E-18
 5.78241E-18
 8.48087E-18
 1.92747E-18
 8.48087E-18
 2.31296E-18
 4.62593E-18
 4.24044E-18
 6.55340E-18
 4.24044E-18
 7.32439E-18
 4.24044E-18
 7.32439E-18
 6.55340E-18
 7.70988E-18
 7.32439E-18
 2.31296E-18
 4.24044E-18
 5.78241E-18
 5.78241E-18
 5.01142E-18
 4.24044E-18
 5.01142E-18
 4.24044E-18
 5.39692E-18
 5.01142E-18
 4.62593E-18
 4.24044E-18
 6.55340E-18
 4.24044E-18
 7.32439E-18
 4.24044E-18
 7.32439E-18
 6.55340E-18
 7.70988E-18
 7.32439E-18
 3.46945E-18
 4.62593E-18
 6.93889E-18
 3.85494E-18
 8.48087E-18
 4.62593E-18
 7.70988E-18
 6.16791E-18
 8.86636E-18
 8.48087E-18
