# vtk DataFile Version 2.0
Output of NLACE
ASCII
DATASET UNSTRUCTURED_GRID
POINTS            8 FLOAT
 0.000000E+00 -5.708759E-01  0.000000E+00
 1.052343E+01  0.000000E+00 -6.034806E-01
 0.000000E+00  1.052343E+01  0.000000E+00
 1.020109E+01  1.020194E+01 -3.172826E-01
 0.000000E+00 -7.163952-322 -8.995476E+00
 1.064738E+01  0.000000E+00 -9.049185E+00
 0.000000E+00  1.052343E+01 -9.029900E+00
 9.523435E+00  9.523435E+00 -1.002990E+01
CELLS            5          25
4    0    4    6    5
4    3    6    7    5
4    3    6    5    0
4    3    0    2    6
4    1    0    3    5
CELL_TYPES            5
10
10
10
10
10
POINT_DATA            8
 SCALARS measuredDisp11 float  1                   
LOOKUP_TABLE default
 0.00000E+00
 5.23435E-01
 0.00000E+00
 5.23435E-01
 0.00000E+00
 5.23435E-01
 0.00000E+00
 5.23435E-01
 SCALARS measuredDisp12 float  1                   
LOOKUP_TABLE default
 0.00000E+00
 0.00000E+00
 5.23435E-01
 5.23435E-01
 0.00000E+00
 0.00000E+00
 5.23435E-01
 5.23435E-01
 SCALARS measuredDisp13 float  1                   
LOOKUP_TABLE default
 0.00000E+00
 0.00000E+00
 0.00000E+00
 0.00000E+00
 9.70059E-01
 9.70059E-01
 9.70059E-01
 9.70059E-01
 SCALARS measuredDisp14 float  1                   
LOOKUP_TABLE default
 3.00998E-01
 3.00998E-01
 3.00998E-01
 3.00998E-01
 3.00998E-01
 3.00998E-01
 3.00998E-01
 3.00998E-01
 SCALARS predictedDisp11 float  1                  
LOOKUP_TABLE default
 0.00000E+00
 5.70843E-01
 0.00000E+00
 5.89256E-01
-3.11068E-02
 5.37762E-01
-3.77804E-02
 4.77377E-01
 SCALARS predictedDisp12 float  1                  
LOOKUP_TABLE default
 0.00000E+00
 0.00000E+00
 6.03990E-01
 5.91865E-01
-8.16673E-03
-3.03848E-02
 5.68954E-01
 4.75111E-01
 SCALARS predictedDisp13 float  1                  
LOOKUP_TABLE default
 0.00000E+00
 0.00000E+00
 0.00000E+00
 0.00000E+00
 9.56321E-01
 9.43573E-01
 9.12020E-01
 8.46136E-01
 SCALARS predictedDisp14 float  1                  
LOOKUP_TABLE default
 3.22381E-01
 3.21423E-01
 3.17440E-01
 3.16722E-01
 3.21712E-01
 3.19844E-01
 3.16787E-01
 3.14461E-01
 SCALARS dual11 float  1                           
LOOKUP_TABLE default
 0.00000E+00
 3.43238E-03
 0.00000E+00
-3.02290E-02
-2.58659E-02
 9.98035E-02
-3.23582E-02
 1.72462E-01
 SCALARS dual12 float  1                           
LOOKUP_TABLE default
 0.00000E+00
 0.00000E+00
-2.08044E-01
-2.37418E-01
-3.56972E-01
-3.64478E-01
-2.94768E-01
-2.02533E-01
 SCALARS dual13 float  1                           
LOOKUP_TABLE default
 0.00000E+00
 0.00000E+00
 0.00000E+00
 0.00000E+00
-3.43460E-03
 7.52342E-02
-7.09303E-02
 3.92405E-03
 SCALARS dual14 float  1                           
LOOKUP_TABLE default
-1.27100E-01
-1.29959E-01
-1.24056E-01
-1.23813E-01
-1.19898E-01
-1.22335E-01
-1.17372E-01
-1.14648E-01
 SCALARS NLP float  1                              
LOOKUP_TABLE default
 1.00000E+00
 1.00000E+00
 1.00000E+00
 1.00000E+00
 1.00000E+00
 1.00000E+00
 1.00000E+00
 1.00000E+00
 SCALARS SM float  1                               
LOOKUP_TABLE default
 3.00000E+00
 3.00000E+00
 3.00000E+00
 3.00000E+00
 3.00000E+00
 3.00000E+00
 3.00000E+00
 3.00000E+00
 SCALARS property3 float  1                        
LOOKUP_TABLE default
 0.00000E+00
 0.00000E+00
 0.00000E+00
 0.00000E+00
 0.00000E+00
 0.00000E+00
 0.00000E+00
 0.00000E+00
 SCALARS property4 float  1                        
LOOKUP_TABLE default
 0.00000E+00
 0.00000E+00
 0.00000E+00
 0.00000E+00
 0.00000E+00
 0.00000E+00
 0.00000E+00
 0.00000E+00
 SCALARS property5 float  1                        
LOOKUP_TABLE default
 0.00000E+00
 0.00000E+00
 0.00000E+00
 0.00000E+00
 1.05563E+00
 1.37207E+00
 1.06232E+00
 8.49432E-01
 SCALARS gradient1 float  1                        
LOOKUP_TABLE default
 0.00000E+00
 0.00000E+00
 0.00000E+00
 0.00000E+00
 0.00000E+00
 0.00000E+00
 0.00000E+00
 0.00000E+00
 SCALARS gradient2 float  1                        
LOOKUP_TABLE default
 0.00000E+00
 0.00000E+00
 0.00000E+00
 0.00000E+00
 0.00000E+00
 0.00000E+00
 0.00000E+00
 0.00000E+00
 SCALARS gradient3 float  1                        
LOOKUP_TABLE default
 0.00000E+00
 0.00000E+00
 0.00000E+00
 0.00000E+00
 0.00000E+00
 0.00000E+00
 0.00000E+00
 0.00000E+00
 SCALARS gradient4 float  1                        
LOOKUP_TABLE default
 0.00000E+00
 0.00000E+00
 0.00000E+00
 0.00000E+00
 0.00000E+00
 0.00000E+00
 0.00000E+00
 0.00000E+00
 SCALARS gradient5 float  1                        
LOOKUP_TABLE default
 0.00000E+00
 0.00000E+00
 0.00000E+00
 0.00000E+00
 1.19763E-02
-6.71039E-01
 5.64293E-01
-4.59706E-02
CELL_DATA           5
SCALARS elemDataMatch  float  1
LOOKUP_TABLE default
 9.48996E-02
 3.02956E-01
 2.76065E-01
 2.74048E-01
 1.19155E-01
SCALARS elemRegul  float  1
LOOKUP_TABLE default
 0.00000E+00
 0.00000E+00
 0.00000E+00
 0.00000E+00
 0.00000E+00
SCALARS l2grad2  float  1
LOOKUP_TABLE default
 6.79870E-17
 6.20634E-17
 3.92523E-17
 0.00000E+00
 5.55112E-17
