# vtk DataFile Version 2.0
Output of NLACE
ASCII
DATASET UNSTRUCTURED_GRID
POINTS            8 FLOAT
 0.000000E+00 -5.708759E-01  0.000000E+00
 1.052343E+01  0.000000E+00 -6.034806E-01
 0.000000E+00  1.052343E+01  0.000000E+00
 1.020109E+01  1.020194E+01 -3.172826E-01
 0.000000E+00 -7.163952e-322 -8.995476E+00
 1.064738E+01  0.000000E+00 -9.049185E+00
 0.000000E+00  1.052343E+01 -9.029900E+00
 9.523435E+00  9.523435E+00 -1.002990E+01
CELLS            5          25
4    0    4    6    5
4    3    6    7    5
4    3    6    5    0
4    3    0    2    6
4    1    0    3    5
CELL_TYPES            5
10
10
10
10
10
POINT_DATA            8
 SCALARS measuredDisp11 float  1                   
LOOKUP_TABLE default
 0.00000E+00
 5.23435E-01
 0.00000E+00
 5.23435E-01
 0.00000E+00
 5.23435E-01
 0.00000E+00
 5.23435E-01
 SCALARS measuredDisp12 float  1                   
LOOKUP_TABLE default
 0.00000E+00
 0.00000E+00
 5.23435E-01
 5.23435E-01
 0.00000E+00
 0.00000E+00
 5.23435E-01
 5.23435E-01
 SCALARS measuredDisp13 float  1                   
LOOKUP_TABLE default
 0.00000E+00
 0.00000E+00
 0.00000E+00
 0.00000E+00
 9.70059E-01
 9.70059E-01
 9.70059E-01
 9.70059E-01
 SCALARS measuredDisp14 float  1                   
LOOKUP_TABLE default
 3.00998E-01
 3.00998E-01
 3.00998E-01
 3.00998E-01
 3.00998E-01
 3.00998E-01
 3.00998E-01
 3.00998E-01
 SCALARS predictedDisp11 float  1                  
LOOKUP_TABLE default
 0.00000E+00
 5.71604E-01
 0.00000E+00
 5.90117E-01
-2.67492E-02
 5.41630E-01
-3.46250E-02
 4.82084E-01
 SCALARS predictedDisp12 float  1                  
LOOKUP_TABLE default
 0.00000E+00
 0.00000E+00
 6.04541E-01
 5.92548E-01
-1.24645E-02
-3.38607E-02
 5.65899E-01
 4.70696E-01
 SCALARS predictedDisp13 float  1                  
LOOKUP_TABLE default
 0.00000E+00
 0.00000E+00
 0.00000E+00
 0.00000E+00
 9.57235E-01
 9.50326E-01
 9.07454E-01
 8.45434E-01
 SCALARS predictedDisp14 float  1                  
LOOKUP_TABLE default
 3.22732E-01
 3.21973E-01
 3.17503E-01
 3.17002E-01
 3.22050E-01
 3.20335E-01
 3.16907E-01
 3.14723E-01
 SCALARS dual11 float  1                           
LOOKUP_TABLE default
 0.00000E+00
-2.69127E-02
 0.00000E+00
-7.97996E-02
-1.22395E-01
 6.62595E-03
-1.44779E-01
 4.51952E-02
 SCALARS dual12 float  1                           
LOOKUP_TABLE default
 0.00000E+00
 0.00000E+00
-1.92269E-01
-1.99301E-01
-2.77837E-01
-2.70843E-01
-2.17240E-01
-8.99270E-02
 SCALARS dual13 float  1                           
LOOKUP_TABLE default
 0.00000E+00
 0.00000E+00
 0.00000E+00
 0.00000E+00
-1.29988E-10
 4.47382E-11
 5.82111E-11
-1.73997E-10
 SCALARS dual14 float  1                           
LOOKUP_TABLE default
-1.28012E-01
-1.27167E-01
-1.28989E-01
-1.24731E-01
-1.20793E-01
-1.20179E-01
-1.21065E-01
-1.15288E-01
 SCALARS NLP float  1                              
LOOKUP_TABLE default
 1.00000E+00
 1.00000E+00
 1.00000E+00
 1.00000E+00
 1.00000E+00
 1.00000E+00
 1.00000E+00
 1.00000E+00
 SCALARS SM float  1                               
LOOKUP_TABLE default
 3.00000E+00
 3.00000E+00
 3.00000E+00
 3.00000E+00
 3.00000E+00
 3.00000E+00
 3.00000E+00
 3.00000E+00
 SCALARS property3 float  1                        
LOOKUP_TABLE default
 0.00000E+00
 0.00000E+00
 0.00000E+00
 0.00000E+00
 0.00000E+00
 0.00000E+00
 0.00000E+00
 0.00000E+00
 SCALARS property4 float  1                        
LOOKUP_TABLE default
 0.00000E+00
 0.00000E+00
 0.00000E+00
 0.00000E+00
 0.00000E+00
 0.00000E+00
 0.00000E+00
 0.00000E+00
 SCALARS property5 float  1                        
LOOKUP_TABLE default
 0.00000E+00
 0.00000E+00
 0.00000E+00
 0.00000E+00
 1.05503E+00
 1.38488E+00
 1.05609E+00
 8.44533E-01
 SCALARS gradient1 float  1                        
LOOKUP_TABLE default
 0.00000E+00
 0.00000E+00
 0.00000E+00
 0.00000E+00
 0.00000E+00
 0.00000E+00
 0.00000E+00
 0.00000E+00
 SCALARS gradient2 float  1                        
LOOKUP_TABLE default
 0.00000E+00
 0.00000E+00
 0.00000E+00
 0.00000E+00
 0.00000E+00
 0.00000E+00
 0.00000E+00
 0.00000E+00
 SCALARS gradient3 float  1                        
LOOKUP_TABLE default
 0.00000E+00
 0.00000E+00
 0.00000E+00
 0.00000E+00
 0.00000E+00
 0.00000E+00
 0.00000E+00
 0.00000E+00
 SCALARS gradient4 float  1                        
LOOKUP_TABLE default
 0.00000E+00
 0.00000E+00
 0.00000E+00
 0.00000E+00
 0.00000E+00
 0.00000E+00
 0.00000E+00
 0.00000E+00
 SCALARS gradient5 float  1                        
LOOKUP_TABLE default
 0.00000E+00
 0.00000E+00
 0.00000E+00
 0.00000E+00
 2.30730E-10
 9.66167E-10
 1.53611E-10
 2.29503E-10
CELL_DATA           5
SCALARS elemDataMatch  float  1
LOOKUP_TABLE default
 8.71618E-02
 3.00519E-01
 2.73774E-01
 2.75912E-01
 1.23812E-01
SCALARS elemRegul  float  1
LOOKUP_TABLE default
 0.00000E+00
 0.00000E+00
 0.00000E+00
 0.00000E+00
 0.00000E+00
SCALARS l2grad2  float  1
LOOKUP_TABLE default
 6.79870E-17
 6.20634E-17
 3.92523E-17
 0.00000E+00
 5.55112E-17
