# vtk DataFile Version 2.0
Output of NLACE
ASCII
DATASET UNSTRUCTURED_GRID
POINTS            8 FLOAT
 0.000000E+00  0.000000E+00  0.000000E+00
 1.000000E+01  0.000000E+00  0.000000E+00
 0.000000E+00  1.000000E+01  0.000000E+00
 1.000000E+01  1.000000E+01  0.000000E+00
 0.000000E+00  0.000000E+00 -1.000000E+01
 1.000000E+01  0.000000E+00 -1.000000E+01
 0.000000E+00  1.000000E+01 -1.000000E+01
 1.000000E+01  1.000000E+01 -1.000000E+01
CELLS            5          25
4    0    4    6    5
4    3    6    7    5
4    3    6    5    0
4    3    0    2    6
4    1    0    3    5
CELL_TYPES            5
10
10
10
10
10
POINT_DATA            8
 SCALARS measuredDisp11 float  1                   
LOOKUP_TABLE default
 0.00000E+00
 5.56017E-03
 0.00000E+00
 5.56017E-03
 0.00000E+00
 5.56017E-03
 0.00000E+00
 5.56017E-03
 SCALARS measuredDisp12 float  1                   
LOOKUP_TABLE default
 0.00000E+00
 0.00000E+00
 5.56017E-03
 5.56017E-03
 0.00000E+00
 0.00000E+00
 5.56017E-03
 5.56017E-03
 SCALARS measuredDisp13 float  1                   
LOOKUP_TABLE default
 0.00000E+00
 0.00000E+00
 0.00000E+00
 0.00000E+00
 1.11111E-02
 1.11111E-02
 1.11111E-02
 1.11111E-02
 SCALARS measuredDisp14 float  1                   
LOOKUP_TABLE default
 3.33333E-03
 3.33333E-03
 3.33333E-03
 3.33333E-03
 3.33333E-03
 3.33333E-03
 3.33333E-03
 3.33333E-03
 SCALARS predictedDisp11 float  1                  
LOOKUP_TABLE default
 0.00000E+00
 5.56018E-03
 0.00000E+00
 5.56018E-03
-5.05565E-09
 5.56018E-03
-5.35262E-09
 5.56017E-03
 SCALARS predictedDisp12 float  1                  
LOOKUP_TABLE default
 0.00000E+00
 0.00000E+00
 5.56018E-03
 5.56018E-03
-5.05565E-09
-5.35262E-09
 5.56018E-03
 5.56017E-03
 SCALARS predictedDisp13 float  1                  
LOOKUP_TABLE default
 0.00000E+00
 0.00000E+00
 0.00000E+00
 0.00000E+00
 1.11111E-02
 1.11111E-02
 1.11111E-02
 1.11111E-02
 SCALARS predictedDisp14 float  1                  
LOOKUP_TABLE default
 3.33334E-03
 3.33334E-03
 3.33334E-03
 3.33334E-03
 3.33334E-03
 3.33334E-03
 3.33334E-03
 3.33334E-03
 SCALARS dual11 float  1                           
LOOKUP_TABLE default
 0.00000E+00
-1.79513E-08
 0.00000E+00
-2.77249E-08
-5.06325E-08
-3.14186E-08
-5.50920E-08
-2.45781E-08
 SCALARS dual12 float  1                           
LOOKUP_TABLE default
 0.00000E+00
 0.00000E+00
-1.79513E-08
-2.77249E-08
-5.06325E-08
-5.50920E-08
-3.14186E-08
-2.45781E-08
 SCALARS dual13 float  1                           
LOOKUP_TABLE default
 0.00000E+00
 0.00000E+00
 0.00000E+00
 0.00000E+00
 8.57726E-14
 6.78491E-14
 7.69077E-14
-2.75113E-13
 SCALARS dual14 float  1                           
LOOKUP_TABLE default
-2.33005E-08
-2.35187E-08
-2.35187E-08
-2.28159E-08
-2.08220E-08
-2.10205E-08
-2.10205E-08
-2.00954E-08
 SCALARS NLP float  1                              
LOOKUP_TABLE default
 1.00000E+00
 1.00000E+00
 1.00000E+00
 1.00000E+00
 1.00000E+00
 1.00000E+00
 1.00000E+00
 1.00000E+00
 SCALARS SM float  1                               
LOOKUP_TABLE default
 3.00000E+00
 3.00000E+00
 3.00000E+00
 3.00000E+00
 3.00000E+00
 3.00000E+00
 3.00000E+00
 3.00000E+00
 SCALARS property3 float  1                        
LOOKUP_TABLE default
 0.00000E+00
 0.00000E+00
 0.00000E+00
 0.00000E+00
 0.00000E+00
 0.00000E+00
 0.00000E+00
 0.00000E+00
 SCALARS property4 float  1                        
LOOKUP_TABLE default
 0.00000E+00
 0.00000E+00
 0.00000E+00
 0.00000E+00
 0.00000E+00
 0.00000E+00
 0.00000E+00
 0.00000E+00
 SCALARS property5 float  1                        
LOOKUP_TABLE default
 0.00000E+00
 0.00000E+00
 0.00000E+00
 0.00000E+00
 1.00112E-02
 1.00112E-02
 1.00112E-02
 1.00111E-02
 SCALARS gradient1 float  1                        
LOOKUP_TABLE default
 0.00000E+00
 0.00000E+00
 0.00000E+00
 0.00000E+00
 0.00000E+00
 0.00000E+00
 0.00000E+00
 0.00000E+00
 SCALARS gradient2 float  1                        
LOOKUP_TABLE default
 0.00000E+00
 0.00000E+00
 0.00000E+00
 0.00000E+00
 0.00000E+00
 0.00000E+00
 0.00000E+00
 0.00000E+00
 SCALARS gradient3 float  1                        
LOOKUP_TABLE default
 0.00000E+00
 0.00000E+00
 0.00000E+00
 0.00000E+00
 0.00000E+00
 0.00000E+00
 0.00000E+00
 0.00000E+00
 SCALARS gradient4 float  1                        
LOOKUP_TABLE default
 0.00000E+00
 0.00000E+00
 0.00000E+00
 0.00000E+00
 0.00000E+00
 0.00000E+00
 0.00000E+00
 0.00000E+00
 SCALARS gradient5 float  1                        
LOOKUP_TABLE default
 0.00000E+00
 0.00000E+00
 0.00000E+00
 0.00000E+00
 0.00000E+00
 0.00000E+00
 0.00000E+00
 0.00000E+00
CELL_DATA           5
SCALARS elemDataMatch  float  1
LOOKUP_TABLE default
 1.50647E-15
 1.26493E-14
 6.87500E-15
 4.79990E-15
 4.79990E-15
SCALARS elemRegul  float  1
LOOKUP_TABLE default
 0.00000E+00
 0.00000E+00
 0.00000E+00
 0.00000E+00
 0.00000E+00
SCALARS l2grad2  float  1
LOOKUP_TABLE default
 0.00000E+00
 0.00000E+00
 0.00000E+00
 0.00000E+00
 0.00000E+00
