# vtk DataFile Version 2.0
Output of NLACE
ASCII
DATASET UNSTRUCTURED_GRID
POINTS            8 FLOAT
 0.000000E+00  0.000000E+00  0.000000E+00
 1.000000E+01  0.000000E+00  0.000000E+00
 0.000000E+00  1.000000E+01  0.000000E+00
 1.000000E+01  1.000000E+01  0.000000E+00
 0.000000E+00  0.000000E+00 -1.000000E+01
 1.000000E+01  0.000000E+00 -1.000000E+01
 0.000000E+00  1.000000E+01 -1.000000E+01
 1.000000E+01  1.000000E+01 -1.000000E+01
CELLS            5          25
4    0    4    6    5
4    3    6    7    5
4    3    6    5    0
4    3    0    2    6
4    1    0    3    5
CELL_TYPES            5
10
10
10
10
10
POINT_DATA            8
 SCALARS measuredDisp11 float  1                   
LOOKUP_TABLE default
 0.00000E+00
 5.56017E-03
 0.00000E+00
 5.56017E-03
 0.00000E+00
 5.56017E-03
 0.00000E+00
 5.56017E-03
 SCALARS measuredDisp12 float  1                   
LOOKUP_TABLE default
 0.00000E+00
 0.00000E+00
 5.56017E-03
 5.56017E-03
 0.00000E+00
 0.00000E+00
 5.56017E-03
 5.56017E-03
 SCALARS measuredDisp13 float  1                   
LOOKUP_TABLE default
 0.00000E+00
 0.00000E+00
 0.00000E+00
 0.00000E+00
 1.11111E-02
 1.11111E-02
 1.11111E-02
 1.11111E-02
 SCALARS measuredDisp14 float  1                   
LOOKUP_TABLE default
 3.33333E-03
 3.33333E-03
 3.33333E-03
 3.33333E-03
 3.33333E-03
 3.33333E-03
 3.33333E-03
 3.33333E-03
 SCALARS predictedDisp11 float  1                  
LOOKUP_TABLE default
 0.00000E+00
 5.57309E-03
 0.00000E+00
 5.57854E-03
-2.33555E-05
 5.55727E-03
-1.99852E-05
 5.55960E-03
 SCALARS predictedDisp12 float  1                  
LOOKUP_TABLE default
 0.00000E+00
 0.00000E+00
 5.57309E-03
 5.57854E-03
-2.33555E-05
-1.99852E-05
 5.55727E-03
 5.55960E-03
 SCALARS predictedDisp13 float  1                  
LOOKUP_TABLE default
 0.00000E+00
 0.00000E+00
 0.00000E+00
 0.00000E+00
 1.12171E-02
 1.11411E-02
 1.11411E-02
 1.10979E-02
 SCALARS predictedDisp14 float  1                  
LOOKUP_TABLE default
 3.34514E-03
 3.34391E-03
 3.34391E-03
 3.34263E-03
 3.34605E-03
 3.34405E-03
 3.34405E-03
 3.34228E-03
 SCALARS dual11 float  1                           
LOOKUP_TABLE default
 0.00000E+00
-3.85677E-05
 0.00000E+00
-6.41448E-05
 1.28773E-04
 5.79266E-05
 1.36505E-04
 5.73115E-05
 SCALARS dual12 float  1                           
LOOKUP_TABLE default
 0.00000E+00
 0.00000E+00
-3.85677E-05
-6.41448E-05
 1.28773E-04
 1.36505E-04
 5.79265E-05
 5.73115E-05
 SCALARS dual13 float  1                           
LOOKUP_TABLE default
 0.00000E+00
 0.00000E+00
 0.00000E+00
 0.00000E+00
-2.38815E-04
-1.45190E-04
-1.45190E-04
 2.99421E-05
 SCALARS dual14 float  1                           
LOOKUP_TABLE default
 3.56747E-05
 3.30474E-05
 3.30474E-05
 2.95433E-05
 3.48161E-05
 3.07262E-05
 3.07262E-05
 2.56241E-05
 SCALARS NLP float  1                              
LOOKUP_TABLE default
 1.00000E+00
 1.00000E+00
 1.00000E+00
 1.00000E+00
 1.00000E+00
 1.00000E+00
 1.00000E+00
 1.00000E+00
 SCALARS SM float  1                               
LOOKUP_TABLE default
 3.00000E+00
 3.00000E+00
 3.00000E+00
 3.00000E+00
 3.00000E+00
 3.00000E+00
 3.00000E+00
 3.00000E+00
 SCALARS property3 float  1                        
LOOKUP_TABLE default
 0.00000E+00
 0.00000E+00
 0.00000E+00
 0.00000E+00
 0.00000E+00
 0.00000E+00
 0.00000E+00
 0.00000E+00
 SCALARS property4 float  1                        
LOOKUP_TABLE default
 0.00000E+00
 0.00000E+00
 0.00000E+00
 0.00000E+00
 0.00000E+00
 0.00000E+00
 0.00000E+00
 0.00000E+00
 SCALARS property5 float  1                        
LOOKUP_TABLE default
 0.00000E+00
 0.00000E+00
 0.00000E+00
 0.00000E+00
 1.01944E-02
 1.00154E-02
 1.00154E-02
 1.00027E-02
 SCALARS gradient1 float  1                        
LOOKUP_TABLE default
 0.00000E+00
 0.00000E+00
 0.00000E+00
 0.00000E+00
 0.00000E+00
 0.00000E+00
 0.00000E+00
 0.00000E+00
 SCALARS gradient2 float  1                        
LOOKUP_TABLE default
 0.00000E+00
 0.00000E+00
 0.00000E+00
 0.00000E+00
 0.00000E+00
 0.00000E+00
 0.00000E+00
 0.00000E+00
 SCALARS gradient3 float  1                        
LOOKUP_TABLE default
 0.00000E+00
 0.00000E+00
 0.00000E+00
 0.00000E+00
 0.00000E+00
 0.00000E+00
 0.00000E+00
 0.00000E+00
 SCALARS gradient4 float  1                        
LOOKUP_TABLE default
 0.00000E+00
 0.00000E+00
 0.00000E+00
 0.00000E+00
 0.00000E+00
 0.00000E+00
 0.00000E+00
 0.00000E+00
 SCALARS gradient5 float  1                        
LOOKUP_TABLE default
 0.00000E+00
 0.00000E+00
 0.00000E+00
 0.00000E+00
 3.20004E-03
 4.50005E-03
 4.50005E-03
 9.60397E-04
CELL_DATA           5
SCALARS elemDataMatch  float  1
LOOKUP_TABLE default
 1.94805E-07
 2.37619E-08
 5.76979E-08
 1.60677E-08
 1.60677E-08
SCALARS elemRegul  float  1
LOOKUP_TABLE default
 0.00000E+00
 0.00000E+00
 0.00000E+00
 0.00000E+00
 0.00000E+00
SCALARS l2grad2  float  1
LOOKUP_TABLE default
 0.00000E+00
 0.00000E+00
 0.00000E+00
 0.00000E+00
 0.00000E+00
