# vtk DataFile Version 2.0
Output of NLACE
ASCII
DATASET UNSTRUCTURED_GRID
POINTS            8 FLOAT
 0.000000E+00  0.000000E+00  0.000000E+00
 1.000000E+01  0.000000E+00  0.000000E+00
 0.000000E+00  1.000000E+01  0.000000E+00
 1.000000E+01  1.000000E+01  0.000000E+00
 0.000000E+00  0.000000E+00 -1.000000E+01
 1.000000E+01  0.000000E+00 -1.000000E+01
 0.000000E+00  1.000000E+01 -1.000000E+01
 1.000000E+01  1.000000E+01 -1.000000E+01
CELLS            5          25
4    0    4    6    5
4    3    6    7    5
4    3    6    5    0
4    3    0    2    6
4    1    0    3    5
CELL_TYPES            5
10
10
10
10
10
POINT_DATA            8
 SCALARS measuredDisp11 float  1                   
LOOKUP_TABLE default
 0.00000E+00
 5.56017E-03
 0.00000E+00
 5.56017E-03
 0.00000E+00
 5.56017E-03
 0.00000E+00
 5.56017E-03
 SCALARS measuredDisp12 float  1                   
LOOKUP_TABLE default
 0.00000E+00
 0.00000E+00
 5.56017E-03
 5.56017E-03
 0.00000E+00
 0.00000E+00
 5.56017E-03
 5.56017E-03
 SCALARS measuredDisp13 float  1                   
LOOKUP_TABLE default
 0.00000E+00
 0.00000E+00
 0.00000E+00
 0.00000E+00
 1.11111E-02
 1.11111E-02
 1.11111E-02
 1.11111E-02
 SCALARS measuredDisp14 float  1                   
LOOKUP_TABLE default
 3.33333E-03
 3.33333E-03
 3.33333E-03
 3.33333E-03
 3.33333E-03
 3.33333E-03
 3.33333E-03
 3.33333E-03
 SCALARS predictedDisp11 float  1                  
LOOKUP_TABLE default
 0.00000E+00
 1.96711E-01
 0.00000E+00
 1.65867E-01
 5.19601E-01
 5.00249E-01
 5.06370E-01
 4.90179E-01
 SCALARS predictedDisp12 float  1                  
LOOKUP_TABLE default
 0.00000E+00
 0.00000E+00
 1.96711E-01
 1.65867E-01
 5.19601E-01
 5.06370E-01
 5.00249E-01
 4.90179E-01
 SCALARS predictedDisp13 float  1                  
LOOKUP_TABLE default
 0.00000E+00
 0.00000E+00
 0.00000E+00
 0.00000E+00
-9.17952E-02
 1.73791E-01
 1.73791E-01
 4.01580E-01
 SCALARS predictedDisp14 float  1                  
LOOKUP_TABLE default
-1.34896E-02
-9.82806E-03
-9.82806E-03
-1.80241E-03
-6.43205E-03
-1.74799E-05
-1.74799E-05
 1.00973E-02
 SCALARS dual11 float  1                           
LOOKUP_TABLE default
 0.00000E+00
-3.80042E+00
 0.00000E+00
-4.03201E+00
-1.01401E+01
-8.87438E+00
-1.04626E+01
-7.84352E+00
 SCALARS dual12 float  1                           
LOOKUP_TABLE default
 0.00000E+00
 0.00000E+00
-3.80042E+00
-4.03201E+00
-1.01401E+01
-1.04626E+01
-8.87438E+00
-7.84352E+00
 SCALARS dual13 float  1                           
LOOKUP_TABLE default
 0.00000E+00
 0.00000E+00
 0.00000E+00
 0.00000E+00
 2.70798E+00
-2.64515E+00
-2.64515E+00
-6.19804E+00
 SCALARS dual14 float  1                           
LOOKUP_TABLE default
-1.22507E+00
-1.14126E+00
-1.14126E+00
-9.40077E-01
-1.01870E+00
-8.71218E-01
-8.71218E-01
-6.17761E-01
 SCALARS NLP float  1                              
LOOKUP_TABLE default
 1.00000E+00
 1.00000E+00
 1.00000E+00
 1.00000E+00
 1.00000E+00
 1.00000E+00
 1.00000E+00
 1.00000E+00
 SCALARS SM float  1                               
LOOKUP_TABLE default
 3.00000E+00
 3.00000E+00
 3.00000E+00
 3.00000E+00
 3.00000E+00
 3.00000E+00
 3.00000E+00
 3.00000E+00
 SCALARS property3 float  1                        
LOOKUP_TABLE default
 0.00000E+00
 0.00000E+00
 0.00000E+00
 0.00000E+00
 1.00000E-01
 1.00000E-01
 1.00000E-01
 1.00000E-01
 SCALARS property4 float  1                        
LOOKUP_TABLE default
 0.00000E+00
 0.00000E+00
 0.00000E+00
 0.00000E+00
 1.00000E-01
 1.00000E-01
 1.00000E-01
 1.00000E-01
 SCALARS property5 float  1                        
LOOKUP_TABLE default
 0.00000E+00
 0.00000E+00
 0.00000E+00
 0.00000E+00
 1.00000E-01
 1.00000E-01
 1.00000E-01
 1.00000E-01
 SCALARS gradient1 float  1                        
LOOKUP_TABLE default
 0.00000E+00
 0.00000E+00
 0.00000E+00
 0.00000E+00
 0.00000E+00
 0.00000E+00
 0.00000E+00
 0.00000E+00
 SCALARS gradient2 float  1                        
LOOKUP_TABLE default
 0.00000E+00
 0.00000E+00
 0.00000E+00
 0.00000E+00
 0.00000E+00
 0.00000E+00
 0.00000E+00
 0.00000E+00
 SCALARS gradient3 float  1                        
LOOKUP_TABLE default
 0.00000E+00
 0.00000E+00
 0.00000E+00
 0.00000E+00
 1.81738E+02
 3.43360E+02
 3.56596E+02
 1.62600E+02
 SCALARS gradient4 float  1                        
LOOKUP_TABLE default
 0.00000E+00
 0.00000E+00
 0.00000E+00
 0.00000E+00
 1.81738E+02
 3.56596E+02
 3.43360E+02
 1.62600E+02
 SCALARS gradient5 float  1                        
LOOKUP_TABLE default
 0.00000E+00
 0.00000E+00
 0.00000E+00
 0.00000E+00
 1.61431E+01
 1.14004E+02
 1.14004E+02
 9.03599E+01
CELL_DATA           5
SCALARS elemDataMatch  float  1
LOOKUP_TABLE default
 2.61669E+01
 3.19154E+01
 3.25832E+01
 7.51006E+00
 7.51006E+00
SCALARS elemRegul  float  1
LOOKUP_TABLE default
 0.00000E+00
 0.00000E+00
 0.00000E+00
 0.00000E+00
 0.00000E+00
SCALARS l2grad2  float  1
LOOKUP_TABLE default
 0.00000E+00
 0.00000E+00
 0.00000E+00
 0.00000E+00
 0.00000E+00
