# vtk DataFile Version 2.0
OUTPUT FROM BUFEM
ASCII
DATASET UNSTRUCTURED_GRID
POINTS         3721 FLOAT
   0.00000000E+00   0.00000000E+00   0.00000000E+00
   0.16666667E-01   0.00000000E+00   0.00000000E+00
   0.33333333E-01   0.00000000E+00   0.00000000E+00
   0.50000000E-01   0.00000000E+00   0.00000000E+00
   0.66666667E-01   0.00000000E+00   0.00000000E+00
   0.83333333E-01   0.00000000E+00   0.00000000E+00
   0.10000000E+00   0.00000000E+00   0.00000000E+00
   0.11666667E+00   0.00000000E+00   0.00000000E+00
   0.13333333E+00   0.00000000E+00   0.00000000E+00
   0.15000000E+00   0.00000000E+00   0.00000000E+00
   0.16666667E+00   0.00000000E+00   0.00000000E+00
   0.18333333E+00   0.00000000E+00   0.00000000E+00
   0.20000000E+00   0.00000000E+00   0.00000000E+00
   0.21666667E+00   0.00000000E+00   0.00000000E+00
   0.23333333E+00   0.00000000E+00   0.00000000E+00
   0.25000000E+00   0.00000000E+00   0.00000000E+00
   0.26666667E+00   0.00000000E+00   0.00000000E+00
   0.28333333E+00   0.00000000E+00   0.00000000E+00
   0.30000000E+00   0.00000000E+00   0.00000000E+00
   0.31666667E+00   0.00000000E+00   0.00000000E+00
   0.33333333E+00   0.00000000E+00   0.00000000E+00
   0.35000000E+00   0.00000000E+00   0.00000000E+00
   0.36666667E+00   0.00000000E+00   0.00000000E+00
   0.38333333E+00   0.00000000E+00   0.00000000E+00
   0.40000000E+00   0.00000000E+00   0.00000000E+00
   0.41666667E+00   0.00000000E+00   0.00000000E+00
   0.43333333E+00   0.00000000E+00   0.00000000E+00
   0.45000000E+00   0.00000000E+00   0.00000000E+00
   0.46666667E+00   0.00000000E+00   0.00000000E+00
   0.48333333E+00   0.00000000E+00   0.00000000E+00
   0.50000000E+00   0.00000000E+00   0.00000000E+00
   0.51666667E+00   0.00000000E+00   0.00000000E+00
   0.53333333E+00   0.00000000E+00   0.00000000E+00
   0.55000000E+00   0.00000000E+00   0.00000000E+00
   0.56666667E+00   0.00000000E+00   0.00000000E+00
   0.58333333E+00   0.00000000E+00   0.00000000E+00
   0.60000000E+00   0.00000000E+00   0.00000000E+00
   0.61666667E+00   0.00000000E+00   0.00000000E+00
   0.63333333E+00   0.00000000E+00   0.00000000E+00
   0.65000000E+00   0.00000000E+00   0.00000000E+00
   0.66666667E+00   0.00000000E+00   0.00000000E+00
   0.68333333E+00   0.00000000E+00   0.00000000E+00
   0.70000000E+00   0.00000000E+00   0.00000000E+00
   0.71666667E+00   0.00000000E+00   0.00000000E+00
   0.73333333E+00   0.00000000E+00   0.00000000E+00
   0.75000000E+00   0.00000000E+00   0.00000000E+00
   0.76666667E+00   0.00000000E+00   0.00000000E+00
   0.78333333E+00   0.00000000E+00   0.00000000E+00
   0.80000000E+00   0.00000000E+00   0.00000000E+00
   0.81666667E+00   0.00000000E+00   0.00000000E+00
   0.83333333E+00   0.00000000E+00   0.00000000E+00
   0.85000000E+00   0.00000000E+00   0.00000000E+00
   0.86666667E+00   0.00000000E+00   0.00000000E+00
   0.88333333E+00   0.00000000E+00   0.00000000E+00
   0.90000000E+00   0.00000000E+00   0.00000000E+00
   0.91666667E+00   0.00000000E+00   0.00000000E+00
   0.93333333E+00   0.00000000E+00   0.00000000E+00
   0.95000000E+00   0.00000000E+00   0.00000000E+00
   0.96666667E+00   0.00000000E+00   0.00000000E+00
   0.98333333E+00   0.00000000E+00   0.00000000E+00
   0.10000000E+01   0.00000000E+00   0.00000000E+00
   0.00000000E+00   0.16666667E-01   0.00000000E+00
   0.16666667E-01   0.16666667E-01   0.00000000E+00
   0.33333333E-01   0.16666667E-01   0.00000000E+00
   0.50000000E-01   0.16666667E-01   0.00000000E+00
   0.66666667E-01   0.16666667E-01   0.00000000E+00
   0.83333333E-01   0.16666667E-01   0.00000000E+00
   0.10000000E+00   0.16666667E-01   0.00000000E+00
   0.11666667E+00   0.16666667E-01   0.00000000E+00
   0.13333333E+00   0.16666667E-01   0.00000000E+00
   0.15000000E+00   0.16666667E-01   0.00000000E+00
   0.16666667E+00   0.16666667E-01   0.00000000E+00
   0.18333333E+00   0.16666667E-01   0.00000000E+00
   0.20000000E+00   0.16666667E-01   0.00000000E+00
   0.21666667E+00   0.16666667E-01   0.00000000E+00
   0.23333333E+00   0.16666667E-01   0.00000000E+00
   0.25000000E+00   0.16666667E-01   0.00000000E+00
   0.26666667E+00   0.16666667E-01   0.00000000E+00
   0.28333333E+00   0.16666667E-01   0.00000000E+00
   0.30000000E+00   0.16666667E-01   0.00000000E+00
   0.31666667E+00   0.16666667E-01   0.00000000E+00
   0.33333333E+00   0.16666667E-01   0.00000000E+00
   0.35000000E+00   0.16666667E-01   0.00000000E+00
   0.36666667E+00   0.16666667E-01   0.00000000E+00
   0.38333333E+00   0.16666667E-01   0.00000000E+00
   0.40000000E+00   0.16666667E-01   0.00000000E+00
   0.41666667E+00   0.16666667E-01   0.00000000E+00
   0.43333333E+00   0.16666667E-01   0.00000000E+00
   0.45000000E+00   0.16666667E-01   0.00000000E+00
   0.46666667E+00   0.16666667E-01   0.00000000E+00
   0.48333333E+00   0.16666667E-01   0.00000000E+00
   0.50000000E+00   0.16666667E-01   0.00000000E+00
   0.51666667E+00   0.16666667E-01   0.00000000E+00
   0.53333333E+00   0.16666667E-01   0.00000000E+00
   0.55000000E+00   0.16666667E-01   0.00000000E+00
   0.56666667E+00   0.16666667E-01   0.00000000E+00
   0.58333333E+00   0.16666667E-01   0.00000000E+00
   0.60000000E+00   0.16666667E-01   0.00000000E+00
   0.61666667E+00   0.16666667E-01   0.00000000E+00
   0.63333333E+00   0.16666667E-01   0.00000000E+00
   0.65000000E+00   0.16666667E-01   0.00000000E+00
   0.66666667E+00   0.16666667E-01   0.00000000E+00
   0.68333333E+00   0.16666667E-01   0.00000000E+00
   0.70000000E+00   0.16666667E-01   0.00000000E+00
   0.71666667E+00   0.16666667E-01   0.00000000E+00
   0.73333333E+00   0.16666667E-01   0.00000000E+00
   0.75000000E+00   0.16666667E-01   0.00000000E+00
   0.76666667E+00   0.16666667E-01   0.00000000E+00
   0.78333333E+00   0.16666667E-01   0.00000000E+00
   0.80000000E+00   0.16666667E-01   0.00000000E+00
   0.81666667E+00   0.16666667E-01   0.00000000E+00
   0.83333333E+00   0.16666667E-01   0.00000000E+00
   0.85000000E+00   0.16666667E-01   0.00000000E+00
   0.86666667E+00   0.16666667E-01   0.00000000E+00
   0.88333333E+00   0.16666667E-01   0.00000000E+00
   0.90000000E+00   0.16666667E-01   0.00000000E+00
   0.91666667E+00   0.16666667E-01   0.00000000E+00
   0.93333333E+00   0.16666667E-01   0.00000000E+00
   0.95000000E+00   0.16666667E-01   0.00000000E+00
   0.96666667E+00   0.16666667E-01   0.00000000E+00
   0.98333333E+00   0.16666667E-01   0.00000000E+00
   0.10000000E+01   0.16666667E-01   0.00000000E+00
   0.00000000E+00   0.33333333E-01   0.00000000E+00
   0.16666667E-01   0.33333333E-01   0.00000000E+00
   0.33333333E-01   0.33333333E-01   0.00000000E+00
   0.50000000E-01   0.33333333E-01   0.00000000E+00
   0.66666667E-01   0.33333333E-01   0.00000000E+00
   0.83333333E-01   0.33333333E-01   0.00000000E+00
   0.10000000E+00   0.33333333E-01   0.00000000E+00
   0.11666667E+00   0.33333333E-01   0.00000000E+00
   0.13333333E+00   0.33333333E-01   0.00000000E+00
   0.15000000E+00   0.33333333E-01   0.00000000E+00
   0.16666667E+00   0.33333333E-01   0.00000000E+00
   0.18333333E+00   0.33333333E-01   0.00000000E+00
   0.20000000E+00   0.33333333E-01   0.00000000E+00
   0.21666667E+00   0.33333333E-01   0.00000000E+00
   0.23333333E+00   0.33333333E-01   0.00000000E+00
   0.25000000E+00   0.33333333E-01   0.00000000E+00
   0.26666667E+00   0.33333333E-01   0.00000000E+00
   0.28333333E+00   0.33333333E-01   0.00000000E+00
   0.30000000E+00   0.33333333E-01   0.00000000E+00
   0.31666667E+00   0.33333333E-01   0.00000000E+00
   0.33333333E+00   0.33333333E-01   0.00000000E+00
   0.35000000E+00   0.33333333E-01   0.00000000E+00
   0.36666667E+00   0.33333333E-01   0.00000000E+00
   0.38333333E+00   0.33333333E-01   0.00000000E+00
   0.40000000E+00   0.33333333E-01   0.00000000E+00
   0.41666667E+00   0.33333333E-01   0.00000000E+00
   0.43333333E+00   0.33333333E-01   0.00000000E+00
   0.45000000E+00   0.33333333E-01   0.00000000E+00
   0.46666667E+00   0.33333333E-01   0.00000000E+00
   0.48333333E+00   0.33333333E-01   0.00000000E+00
   0.50000000E+00   0.33333333E-01   0.00000000E+00
   0.51666667E+00   0.33333333E-01   0.00000000E+00
   0.53333333E+00   0.33333333E-01   0.00000000E+00
   0.55000000E+00   0.33333333E-01   0.00000000E+00
   0.56666667E+00   0.33333333E-01   0.00000000E+00
   0.58333333E+00   0.33333333E-01   0.00000000E+00
   0.60000000E+00   0.33333333E-01   0.00000000E+00
   0.61666667E+00   0.33333333E-01   0.00000000E+00
   0.63333333E+00   0.33333333E-01   0.00000000E+00
   0.65000000E+00   0.33333333E-01   0.00000000E+00
   0.66666667E+00   0.33333333E-01   0.00000000E+00
   0.68333333E+00   0.33333333E-01   0.00000000E+00
   0.70000000E+00   0.33333333E-01   0.00000000E+00
   0.71666667E+00   0.33333333E-01   0.00000000E+00
   0.73333333E+00   0.33333333E-01   0.00000000E+00
   0.75000000E+00   0.33333333E-01   0.00000000E+00
   0.76666667E+00   0.33333333E-01   0.00000000E+00
   0.78333333E+00   0.33333333E-01   0.00000000E+00
   0.80000000E+00   0.33333333E-01   0.00000000E+00
   0.81666667E+00   0.33333333E-01   0.00000000E+00
   0.83333333E+00   0.33333333E-01   0.00000000E+00
   0.85000000E+00   0.33333333E-01   0.00000000E+00
   0.86666667E+00   0.33333333E-01   0.00000000E+00
   0.88333333E+00   0.33333333E-01   0.00000000E+00
   0.90000000E+00   0.33333333E-01   0.00000000E+00
   0.91666667E+00   0.33333333E-01   0.00000000E+00
   0.93333333E+00   0.33333333E-01   0.00000000E+00
   0.95000000E+00   0.33333333E-01   0.00000000E+00
   0.96666667E+00   0.33333333E-01   0.00000000E+00
   0.98333333E+00   0.33333333E-01   0.00000000E+00
   0.10000000E+01   0.33333333E-01   0.00000000E+00
   0.00000000E+00   0.50000000E-01   0.00000000E+00
   0.16666667E-01   0.50000000E-01   0.00000000E+00
   0.33333333E-01   0.50000000E-01   0.00000000E+00
   0.50000000E-01   0.50000000E-01   0.00000000E+00
   0.66666667E-01   0.50000000E-01   0.00000000E+00
   0.83333333E-01   0.50000000E-01   0.00000000E+00
   0.10000000E+00   0.50000000E-01   0.00000000E+00
[...]
POINT_DATA         3721
 SCALARS meas11 float  1  
LOOKUP_TABLE default
 -1.110197370000000E-003
 -1.037937160000000E-003
 -1.003206360000000E-003
 -9.778069550000000E-004
 -9.436588560000000E-004
 -9.172075980000000E-004
 -8.615138250000000E-004
 -8.260259460000000E-004
 -7.798328939999999E-004
 -7.652930280000000E-004
 -7.401158390000000E-004
 -6.769933120000000E-004
 -6.577268260000000E-004
 -6.115387300000000E-004
 -5.699644410000000E-004
 -5.282158620000000E-004
 -4.968854990000000E-004
 -4.535892200000000E-004
 -4.027954120000000E-004
 -3.732950680000000E-004
 -3.380531810000000E-004
 -3.103775290000000E-004
 -2.711884970000000E-004
 -2.508702080000000E-004
 -1.965423840000000E-004
 -1.630189030000000E-004
 -1.412961160000000E-004
 -1.173327980000000E-004
 -6.715855640000000E-005
 -3.939304140000000E-005
 -4.442624060000000E-006
  4.290601370000000E-005
  7.373549920000001E-005
  8.421802950000000E-005
  1.331516910000000E-004
  1.655719630000000E-004
  2.035197270000000E-004
  2.293717510000000E-004
  2.686806110000000E-004
  3.221026200000000E-004
  3.317023800000000E-004
  3.820099920000000E-004
  4.335597310000000E-004
  4.691756420000000E-004
  4.927741070000000E-004
  5.433818880000000E-004
  5.791467300000000E-004
  6.343466270000000E-004
  6.279267290000000E-004
  7.027111900000000E-004
  6.997604900000000E-004
  7.715537060000000E-004
  7.839499600000000E-004
  8.162673390000000E-004
  8.615625260000000E-004
  8.987369510000000E-004
  9.340523960000000E-004
  9.698662930000000E-004
  1.005220470000000E-003
  1.038111060000000E-003
  1.079605530000000E-003
 -1.072465700000000E-003
 -1.047459570000000E-003
 -9.995199160000000E-004
 -9.691771420000000E-004
 -9.430016330000000E-004
 -9.110698370000000E-004
 -8.794557130000000E-004
 -8.298587730000000E-004
 -8.046460860000000E-004
 -7.552745560000000E-004
 -7.140754920000000E-004
 -6.775491760000000E-004
 -6.353771480000000E-004
 -5.984265300000000E-004
 -5.597459250000000E-004
 -5.203489180000000E-004
 -4.835259410000000E-004
 -4.458583080000000E-004
 -4.251433560000000E-004
 -3.866638260000000E-004
 -3.534485780000000E-004
 -3.058364640000000E-004
 -2.742606750000000E-004
 -2.302352240000000E-004
 -1.854084180000000E-004
 -1.706714500000000E-004
 -1.379124250000000E-004
 -1.005456800000000E-004
 -7.426106370000000E-005
 -2.203855140000000E-005
 -6.114950840000000E-006
  3.232554960000000E-005
  4.717345090000000E-005
  1.053255560000000E-004
  1.364075770000000E-004
  1.575277040000000E-004
  1.847158680000000E-004
  2.147838750000000E-004
  2.717582220000000E-004
  3.115300160000000E-004
  3.421531460000000E-004
  3.843404860000000E-004
  3.981955660000000E-004
  4.542983170000000E-004
  4.826950270000000E-004
  5.333444890000000E-004
  5.772151700000000E-004
  6.008317410000000E-004
  6.373480240000001E-004
  6.962762260000000E-004
  7.159763470000000E-004
  7.651802130000000E-004
  7.972769790000000E-004
  8.212798010000000E-004
  8.568054720000000E-004
  9.171409020000000E-004
  9.527656110000000E-004
  9.721947230000000E-004
  1.007224010000000E-003
  1.039143940000000E-003
  1.093663540000000E-003
 -1.113054120000000E-003
 -1.039431730000000E-003
 -1.007043260000000E-003
 -9.786124840000000E-004
 -9.186803690000000E-004
 -9.203760610000000E-004
 -8.696733170000000E-004
 -8.215499540000000E-004
 -7.905702210000000E-004
 -7.564506120000000E-004
 -6.969393390000000E-004
 -6.705046630000000E-004
 -6.259069590000000E-004
 -5.832527690000000E-004
 -5.672458010000000E-004
 -5.271083840000000E-004
 -4.785941730000000E-004
 -4.778800210000000E-004
 -4.268365870000000E-004
 -3.900390880000000E-004
 -3.477325820000000E-004
 -3.267482330000000E-004
 -2.673132620000000E-004
 -2.232020770000000E-004
 -1.815236110000000E-004
 -1.564519460000000E-004
 -1.369172400000000E-004
 -9.800721620000000E-005
 -8.008079710000000E-005
 -2.237902520000000E-005
  5.423376170000000E-006
  2.679027220000000E-005
  7.500106850000001E-005
  1.107803470000000E-004
  1.549788730000000E-004
  1.661652970000000E-004
  1.720606820000000E-004
  2.400530710000000E-004
  2.580730910000000E-004
  3.106670940000000E-004
  3.357213540000000E-004
  3.764284950000000E-004
  4.086450720000000E-004
  4.560688850000000E-004
  4.963964350000000E-004
  5.458384060000000E-004
  5.543727460000000E-004
  6.104796060000000E-004
  6.508950330000001E-004
  6.604163000000000E-004
  7.237734910000000E-004
  7.598729400000000E-004
  7.848294600000000E-004
  8.386653590000000E-004
  8.698881710000001E-004
  9.045212030000000E-004
  9.393144950000000E-004
  9.773956510000000E-004
  1.007497130000000E-003
  1.054360540000000E-003
  1.085758960000000E-003
 -1.086853200000000E-003
 -1.044338200000000E-003
 -1.003794900000000E-003
 -9.946481140000001E-004
 -9.257807490000000E-004
 -9.080668540000000E-004
 -8.713213920000000E-004
 -8.473529820000000E-004
 -7.997577400000000E-004
 -7.569292470000000E-004
 -7.249623389999999E-004
 -6.716155410000000E-004
 -6.291762620000000E-004
 -6.266511960000000E-004
 -5.738200560000001E-004
 -5.468107610000000E-004
 -4.864221890000000E-004
 -4.648306280000000E-004
 -4.318580170000000E-004
 -3.834372380000000E-004
 -3.369451320000000E-004
 -2.955703330000000E-004
 -2.673167850000000E-004
 -2.411762300000000E-004
 -1.819666880000000E-004
 -1.585779280000000E-004
 -1.317098530000000E-004
 -9.342859560000000E-005
 -5.873256380000000E-005
 -5.737919580000000E-005
 -4.303988440000000E-006
  2.225612080000000E-005
  6.653759020000000E-005
  1.049239100000000E-004
  1.477326030000000E-004
  1.895322810000000E-004
  2.071849770000000E-004
  2.384990180000000E-004
  2.885885140000000E-004
  3.073881090000000E-004
  3.255763740000000E-004
  4.000544330000000E-004
  4.243662970000000E-004
  4.599062880000000E-004
  4.989824170000000E-004
  5.491390490000001E-004
  5.514544270000000E-004
  6.182702960000000E-004
  6.397229109999999E-004
  6.854399800000000E-004
  7.265515290000000E-004
  7.545830530000000E-004
  7.939106300000000E-004
  8.320218170000001E-004
  8.665278840000000E-004
  8.861892540000000E-004
  9.295049540000000E-004
  1.007460620000000E-003
  1.002802920000000E-003
  1.037625810000000E-003
  1.070808120000000E-003
 -1.057818760000000E-003
 -1.041237490000000E-003
 -9.985781910000001E-004
 -9.543673320000000E-004
 -9.441950580000000E-004
 -8.970717890000000E-004
 -8.892102530000001E-004
 -8.394334250000000E-004
 -7.893031960000000E-004
 -7.538915470000000E-004
 -7.307050800000000E-004
 -6.847660520000000E-004
 -6.490779040000000E-004
 -6.096964250000000E-004
 -5.386513570000000E-004
 -5.299138380000000E-004
 -4.871995800000000E-004
 -4.658690660000000E-004
 -4.029550790000000E-004
 -3.970290250000000E-004
 -3.210555510000000E-004
 -3.055113230000000E-004
 -2.599186530000000E-004
 -2.411069100000000E-004
 -2.141782310000000E-004
 -1.627419040000000E-004
 -1.177046650000000E-004
 -8.973816700000000E-005
 -5.656321360000000E-005
 -4.114595840000000E-005
 -7.396505620000000E-006
  2.088878040000000E-005
  5.539254030000000E-005
  9.772898099999999E-005
  1.446180660000000E-004
  1.571267400000000E-004
  2.156230280000000E-004
  2.478282720000000E-004
  2.645541380000000E-004
  3.029675590000000E-004
  3.541426000000000E-004
  3.780028340000000E-004
  4.042465840000000E-004
  4.377214120000000E-004
  4.760515870000000E-004
  5.193375140000000E-004
  5.895677040000000E-004
  6.060207470000000E-004
  6.429136190000000E-004
  6.735481990000000E-004
  7.357381990000000E-004
  7.624374980000000E-004
  8.147496100000000E-004
  8.365005380000000E-004
  8.760042410000000E-004
  9.014962750000000E-004
  9.374414010000000E-004
  9.837818090000000E-004
  9.975942539999999E-004
  1.038456890000000E-003
  1.071748890000000E-003
 -1.073339900000000E-003
 -1.032450970000000E-003
 -1.009659230000000E-003
 -9.723566630000000E-004
 -9.200581900000000E-004
 -8.864869020000000E-004
 -8.744881520000000E-004
 -8.472700440000001E-004
 -7.949928420000000E-004
 -7.437006620000000E-004
 -7.061193180000000E-004
 -6.947081030000000E-004
 -6.416705670000000E-004
 -6.189114360000000E-004
 -5.470811160000000E-004
 -5.017308950000000E-004
 -5.007502830000000E-004
 -4.476702290000000E-004
 -4.284027760000000E-004
 -3.904881570000000E-004
 -3.445538850000000E-004
 -3.075258760000000E-004
 -2.530810160000000E-004
 -2.385543510000000E-004
 -2.034118420000000E-004
 -1.441181740000000E-004
 -1.484516610000000E-004
 -1.071455910000000E-004
 -5.307978610000000E-005
 -4.840455730000000E-005
 -8.813046790000001E-006
  4.178316510000000E-005
  5.953216840000000E-005
  9.746997040000000E-005
  1.375215880000000E-004
  1.540686160000000E-004
  2.082484810000000E-004
  2.480925980000000E-004
  2.797079340000000E-004
  3.069895720000000E-004
  3.163961640000000E-004
  3.718140610000000E-004
  3.919741920000000E-004
  4.424112020000000E-004
  4.794418920000000E-004
  5.022922460000000E-004
  5.590791390000000E-004
  6.117507210000000E-004
  6.282079260000000E-004
  6.900745220000000E-004
  7.365238560000000E-004
  7.400634900000000E-004
  8.142568380000000E-004
  8.286077740000000E-004
  8.618576720000000E-004
  9.066030120000000E-004
  9.327639060000000E-004
  9.667957000000000E-004
  9.899023050000001E-004
  1.025267860000000E-003
  1.053857680000000E-003
 -1.079925840000000E-003
 -1.050023560000000E-003
 -1.011307280000000E-003
 -9.877839360000001E-004
 -9.450460920000000E-004
 -9.145432100000000E-004
 -8.910983340000000E-004
 -8.282598010000000E-004
 -8.071485050000000E-004
 -7.546999810000000E-004
 -7.016879730000000E-004
 -6.654534800000000E-004
 -6.191870850000000E-004
 -5.928810170000000E-004
 -5.619921370000000E-004
 -5.288951150000000E-004
 -4.904111150000000E-004
 -4.519763660000000E-004
 -4.276509090000000E-004
 -3.699487690000000E-004
 -3.446539210000000E-004
 -2.799329790000000E-004
 -2.685955070000000E-004
 -2.210670100000000E-004
 -1.991650680000000E-004
 -1.561967640000000E-004
 -1.247748090000000E-004
 -1.086843500000000E-004
 -6.824834179999999E-005
 -2.960893260000000E-005
  3.437014070000000E-006
  2.784963880000000E-005
  8.822117160000001E-005
  9.323004960000000E-005
  1.288973540000000E-004
  1.554176950000000E-004
  1.811206100000000E-004
  2.360601250000000E-004
  2.726889860000000E-004
  2.834555680000000E-004
  3.298033830000000E-004
  3.742778920000000E-004
  4.311440350000000E-004
  4.352952230000000E-004
  4.941301180000000E-004
  5.340449520000000E-004
  5.697387440000000E-004
  5.925859520000000E-004
  6.453914930000000E-004
  6.951570210000000E-004
  7.174093520000000E-004
  7.522404400000000E-004
  8.073676360000000E-004
  8.374674170000000E-004
  8.716431790000000E-004
  8.945938990000000E-004
  9.363398780000000E-004
  9.643325130000000E-004
  1.018558870000000E-003
  1.044749690000000E-003
  1.085010700000000E-003
 -1.075851020000000E-003
 -1.032967120000000E-003
 -9.864685460000001E-004
 -9.751604980000001E-004
 -9.440285710000000E-004
 -9.038095280000001E-004
 -8.642797310000000E-004
 -8.480469390000000E-004
 -7.959593870000000E-004
 -7.379318270000000E-004
 -7.290914280000000E-004
 -6.902622520000000E-004
 -6.376057250000000E-004
 -5.960497420000000E-004
 -5.627456419999999E-004
 -5.283502100000001E-004
 -4.647261400000000E-004
 -4.557093810000000E-004
 -3.968595200000000E-004
 -3.646648040000000E-004
 -3.301496800000000E-004
 -2.933890090000000E-004
 -2.644757210000000E-004
 -2.343904150000000E-004
 -2.028634180000000E-004
 -1.673251670000000E-004
 -1.172283560000000E-004
 -1.130378550000000E-004
 -6.596471100000000E-005
 -3.763387530000000E-005
 -1.530468800000000E-006
  5.117098670000000E-005
  5.139115980000000E-005
  9.377802590000000E-005
  1.403718370000000E-004
  1.521626000000000E-004
  1.860003050000000E-004
  2.479379440000000E-004
  2.555072900000000E-004
  3.166551740000000E-004
  3.419040600000000E-004
  3.342541430000000E-004
  4.136960040000000E-004
  4.464995660000000E-004
  4.850635320000000E-004
  5.350609950000000E-004
  5.798139130000000E-004
  5.957920350000000E-004
  6.517995520000000E-004
  6.652054480000000E-004
  7.407873700000000E-004
  7.532607069999999E-004
  7.911382880000000E-004
  8.272739250000000E-004
  8.720498979999999E-004
  9.066691550000000E-004
  9.423625510000000E-004
  9.714374110000000E-004
  1.008281970000000E-003
  1.034360260000000E-003
  1.058624400000000E-003
 -1.080186200000000E-003
 -1.034179590000000E-003
 -1.010785340000000E-003
 -9.711357280000001E-004
 -9.466257270000000E-004
 -8.906846500000000E-004
 -8.608683340000000E-004
 -8.352790780000000E-004
 -8.073970660000000E-004
 -7.764499980000000E-004
 -7.126659750000000E-004
 -6.836944960000000E-004
 -6.318237920000000E-004
 -6.071214460000000E-004
 -5.660344429999999E-004
 -5.193365540000000E-004
 -4.658253500000000E-004
 -4.563781620000000E-004
 -3.964728850000000E-004
 -3.778703470000000E-004
 -3.161922550000000E-004
 -2.789188070000000E-004
 -2.603716710000000E-004
 -2.554041110000000E-004
 -2.083314120000000E-004
 -1.544213680000000E-004
 -1.355774370000000E-004
 -9.993401290000001E-005
 -6.893421140000000E-005
 -3.944608150000000E-005
  1.101881530000000E-005
  1.785421090000000E-005
  4.838776950000000E-005
  1.008260500000000E-004
  1.146965770000000E-004
  1.721741340000000E-004
  2.056871390000000E-004
  2.390656480000000E-004
  2.673544940000000E-004
  3.095244140000000E-004
  3.261880060000000E-004
  3.579246790000000E-004
  3.985212980000000E-004
  4.416569750000000E-004
  4.855713200000000E-004
  5.375220700000000E-004
  5.803145610000000E-004
  5.738865530000000E-004
  6.546422180000000E-004
  6.834595229999999E-004
  6.999080750000000E-004
  7.550553470000001E-004
  7.885885280000000E-004
  8.458355550000000E-004
  8.560340100000001E-004
  8.924630720000000E-004
  9.479249990000000E-004
  9.769353819999999E-004
  9.987370709999999E-004
  1.043173080000000E-003
  1.066551440000000E-003
 -1.100412240000000E-003
 -1.035065200000000E-003
 -1.008933530000000E-003
 -9.748002350000000E-004
 -9.377749030000000E-004
 -9.089629150000000E-004
 -8.665672270000000E-004
 -8.205857730000000E-004
 -7.930763280000000E-004
 -7.601185460000000E-004
 -7.231020590000000E-004
 -6.756597860000000E-004
 -6.376533390000000E-004
 -6.149613439999999E-004
 -5.661118570000000E-004
 -5.413150240000000E-004
 -4.724299070000000E-004
 -4.389682310000000E-004
 -4.153664100000000E-004
 -3.698823090000000E-004
 -3.145300510000000E-004
 -2.977069770000000E-004
 -2.541684900000000E-004
 -2.380980740000000E-004
 -1.893841980000000E-004
 -1.643920830000000E-004
 -1.205353330000000E-004
 -9.624946040000000E-005
 -6.418787030000000E-005
 -4.260582980000000E-005
  2.414639190000000E-005
  3.587228480000000E-005
  7.602091870000001E-005
  8.713111240000000E-005
  1.113195190000000E-004
  1.653003060000000E-004
  2.001395800000000E-004
  2.478929480000000E-004
  2.606317310000000E-004
  3.090675590000000E-004
  3.450494420000000E-004
  3.526167090000000E-004
  4.193769690000000E-004
  4.149761200000000E-004
  4.731702660000000E-004
  5.156684790000000E-004
  5.570948360000000E-004
  5.964797260000000E-004
  6.231494540000000E-004
  6.926780310000000E-004
  7.096950860000000E-004
  7.486347400000001E-004
  7.953729020000000E-004
  8.303755420000000E-004
  8.536723350000001E-004
  8.973661120000000E-004
  9.436467180000000E-004
  9.776008709999999E-004
  1.014664660000000E-003
  1.029758610000000E-003
  1.060235240000000E-003
 -1.082623820000000E-003
 -1.042532240000000E-003
 -1.029733390000000E-003
 -9.823750350000000E-004
 -9.595380400000000E-004
 -8.899687850000000E-004
 -8.631965620000000E-004
 -8.381581240000000E-004
 -7.847156210000000E-004
 -7.272703620000000E-004
 -7.152184459999999E-004
 -6.803946960000000E-004
 -6.288773590000000E-004
 -5.815920480000000E-004
 -5.556111400000000E-004
 -5.018581710000000E-004
 -4.845763460000000E-004
 -4.467503250000000E-004
 -4.159156690000000E-004
 -3.546434490000000E-004
 -3.354803090000000E-004
 -2.720802230000000E-004
 -2.835901850000000E-004
 -2.118346590000000E-004
 -1.827802300000000E-004
 -1.602668290000000E-004
 -1.379271900000000E-004
 -1.124773180000000E-004
 -7.047297449999999E-005
 -2.355842100000000E-005
 -1.086351280000000E-005
  7.457286030000000E-006
  4.813460310000000E-005
  1.063229070000000E-004
  1.597250270000000E-004
  1.502402610000000E-004
  1.880217440000000E-004
  2.298360270000000E-004
  2.712824380000000E-004
  2.934137260000000E-004
  3.295443850000000E-004
  3.623573850000000E-004
  4.206571960000000E-004
  4.432900070000000E-004
  4.709627180000000E-004
  4.895836110000000E-004
  5.292088900000000E-004
  5.912302700000000E-004
  6.137365950000000E-004
  6.578954480000000E-004
  7.060341760000000E-004
  7.721797390000000E-004
  7.837091930000000E-004
  8.326974430000000E-004
  8.805122130000000E-004
  9.034967230000000E-004
  9.506311310000000E-004
  9.364884810000000E-004
  1.014048870000000E-003
  1.016552560000000E-003
  1.074051980000000E-003
 -1.068410850000000E-003
 -1.030870370000000E-003
 -1.018331400000000E-003
 -9.838524220000000E-004
 -9.434635250000000E-004
 -8.976915660000000E-004
 -8.753000820000000E-004
 -8.138325640000000E-004
 -7.839822430000000E-004
 -7.620167260000000E-004
 -7.350844770000000E-004
 -6.802837990000000E-004
 -6.422131989999999E-004
 -5.962386030000000E-004
 -5.534466070000000E-004
 -5.003725390000000E-004
 -4.565136860000000E-004
 -4.266309290000000E-004
 -4.195296830000000E-004
 -3.639576200000000E-004
 -3.425404860000000E-004
 -3.001860900000000E-004
 -2.512524530000000E-004
 -2.128251920000000E-004
 -2.080198670000000E-004
 -1.769727940000000E-004
 -1.364692090000000E-004
 -1.031950410000000E-004
 -5.003558640000000E-005
 -3.523116990000000E-005
 -1.230211680000000E-005
  4.587815780000000E-005
  6.536594050000000E-005
  8.425305220000000E-005
  1.234897450000000E-004
  1.428526380000000E-004
  1.924505340000000E-004
  2.164208180000000E-004
  2.662939460000000E-004
  3.100583730000000E-004
  2.977814970000000E-004
  3.565575670000000E-004
  3.909958190000000E-004
  4.396970500000000E-004
  4.585258070000000E-004
  5.117300470000000E-004
  5.587639190000000E-004
  5.851327660000000E-004
  6.329545230000000E-004
  6.529131410000000E-004
  7.205911370000000E-004
  7.426438010000000E-004
  7.779926730000000E-004
  8.460779050000001E-004
  8.816002470000000E-004
  8.993552340000001E-004
  9.339137180000000E-004
  9.686695650000000E-004
  1.017833210000000E-003
  1.037022790000000E-003
  1.057942470000000E-003
 -1.065881260000000E-003
 -1.034294450000000E-003
 -1.016060060000000E-003
 -9.633623730000000E-004
 -9.064948320000000E-004
 -8.986019710000000E-004
 -8.749322880000000E-004
 -8.246649830000000E-004
 -7.717174990000000E-004
 -7.407964250000000E-004
 -7.126334410000000E-004
 -6.694228770000000E-004
 -6.454243090000000E-004
 -5.777432330000000E-004
 -5.244844980000000E-004
 -4.984400950000000E-004
 -4.599870100000000E-004
 -4.267688150000000E-004
 -3.829233930000000E-004
 -3.503628620000000E-004
 -3.116333670000000E-004
 -3.086505080000000E-004
 -2.496845010000000E-004
 -2.156389810000000E-004
 -1.819510110000000E-004
 -1.485130660000000E-004
 -1.394456340000000E-004
 -7.019443230000000E-005
 -7.310390540000000E-005
 -1.526093070000000E-005
  9.106030170000000E-006
  4.816839450000000E-005
  6.305062979999999E-005
  9.014691780000000E-005
  1.304217610000000E-004
  1.541530830000000E-004
  1.995323540000000E-004
  2.192028970000000E-004
  2.598894420000000E-004
  2.885810010000000E-004
  3.247966210000000E-004
  3.622507450000000E-004
  3.942216720000000E-004
  4.335995750000000E-004
  4.689056620000000E-004
  4.896462390000000E-004
  5.375691400000000E-004
  6.078150650000000E-004
  6.299819610000000E-004
  6.792294329999999E-004
  6.979771480000000E-004
  7.469051030000000E-004
  7.751261850000000E-004
  8.331297650000000E-004
  8.641370880000000E-004
  9.041345340000000E-004
  9.239704139999999E-004
  9.706124810000000E-004
  1.000903760000000E-003
  1.041494430000000E-003
  1.045308590000000E-003
 -1.046927190000000E-003
 -1.030722560000000E-003
 -9.980909300000001E-004
 -9.712540150000000E-004