# vtk DataFile Version 2.0
OUTPUT FROM BUFEM
ASCII
DATASET UNSTRUCTURED_GRID
POINTS         3721 FLOAT
 0.000000E+00  0.000000E+00  0.000000E+00
 1.666667E-02  0.000000E+00  0.000000E+00
 3.333333E-02  0.000000E+00  0.000000E+00
 5.000000E-02  0.000000E+00  0.000000E+00
 6.666667E-02  0.000000E+00  0.000000E+00
 8.333333E-02  0.000000E+00  0.000000E+00
 1.000000E-01  0.000000E+00  0.000000E+00
 1.166667E-01  0.000000E+00  0.000000E+00
 1.333333E-01  0.000000E+00  0.000000E+00
 1.500000E-01  0.000000E+00  0.000000E+00
 1.666667E-01  0.000000E+00  0.000000E+00
 1.833333E-01  0.000000E+00  0.000000E+00
 2.000000E-01  0.000000E+00  0.000000E+00
 2.166667E-01  0.000000E+00  0.000000E+00
 2.333333E-01  0.000000E+00  0.000000E+00
 2.500000E-01  0.000000E+00  0.000000E+00
 2.666667E-01  0.000000E+00  0.000000E+00
 2.833333E-01  0.000000E+00  0.000000E+00
 3.000000E-01  0.000000E+00  0.000000E+00
 3.166667E-01  0.000000E+00  0.000000E+00
 3.333333E-01  0.000000E+00  0.000000E+00
 3.500000E-01  0.000000E+00  0.000000E+00
 3.666667E-01  0.000000E+00  0.000000E+00
 3.833333E-01  0.000000E+00  0.000000E+00
 4.000000E-01  0.000000E+00  0.000000E+00
 4.166667E-01  0.000000E+00  0.000000E+00
 4.333333E-01  0.000000E+00  0.000000E+00
 4.500000E-01  0.000000E+00  0.000000E+00
 4.666667E-01  0.000000E+00  0.000000E+00
 4.833333E-01  0.000000E+00  0.000000E+00
 5.000000E-01  0.000000E+00  0.000000E+00
 5.166667E-01  0.000000E+00  0.000000E+00
 5.333333E-01  0.000000E+00  0.000000E+00
 5.500000E-01  0.000000E+00  0.000000E+00
 5.666667E-01  0.000000E+00  0.000000E+00
 5.833333E-01  0.000000E+00  0.000000E+00
 6.000000E-01  0.000000E+00  0.000000E+00
 6.166667E-01  0.000000E+00  0.000000E+00
 6.333333E-01  0.000000E+00  0.000000E+00
 6.500000E-01  0.000000E+00  0.000000E+00
 6.666667E-01  0.000000E+00  0.000000E+00
 6.833333E-01  0.000000E+00  0.000000E+00
 7.000000E-01  0.000000E+00  0.000000E+00
 7.166667E-01  0.000000E+00  0.000000E+00
 7.333333E-01  0.000000E+00  0.000000E+00
 7.500000E-01  0.000000E+00  0.000000E+00
 7.666667E-01  0.000000E+00  0.000000E+00
 7.833333E-01  0.000000E+00  0.000000E+00
 8.000000E-01  0.000000E+00  0.000000E+00
 8.166667E-01  0.000000E+00  0.000000E+00
 8.333333E-01  0.000000E+00  0.000000E+00
 8.500000E-01  0.000000E+00  0.000000E+00
 8.666667E-01  0.000000E+00  0.000000E+00
 8.833333E-01  0.000000E+00  0.000000E+00
 9.000000E-01  0.000000E+00  0.000000E+00
 9.166667E-01  0.000000E+00  0.000000E+00
 9.333333E-01  0.000000E+00  0.000000E+00
 9.500000E-01  0.000000E+00  0.000000E+00
 9.666667E-01  0.000000E+00  0.000000E+00
 9.833333E-01  0.000000E+00  0.000000E+00
 1.000000E+00  0.000000E+00  0.000000E+00
 0.000000E+00  1.666667E-02  0.000000E+00
 1.666667E-02  1.666667E-02  0.000000E+00
 3.333333E-02  1.666667E-02  0.000000E+00
 5.000000E-02  1.666667E-02  0.000000E+00
 6.666667E-02  1.666667E-02  0.000000E+00
 8.333333E-02  1.666667E-02  0.000000E+00
 1.000000E-01  1.666667E-02  0.000000E+00
 1.166667E-01  1.666667E-02  0.000000E+00
 1.333333E-01  1.666667E-02  0.000000E+00
 1.500000E-01  1.666667E-02  0.000000E+00
 1.666667E-01  1.666667E-02  0.000000E+00
 1.833333E-01  1.666667E-02  0.000000E+00
 2.000000E-01  1.666667E-02  0.000000E+00
 2.166667E-01  1.666667E-02  0.000000E+00
 2.333333E-01  1.666667E-02  0.000000E+00
 2.500000E-01  1.666667E-02  0.000000E+00
 2.666667E-01  1.666667E-02  0.000000E+00
 2.833333E-01  1.666667E-02  0.000000E+00
 3.000000E-01  1.666667E-02  0.000000E+00
 3.166667E-01  1.666667E-02  0.000000E+00
 3.333333E-01  1.666667E-02  0.000000E+00
 3.500000E-01  1.666667E-02  0.000000E+00
 3.666667E-01  1.666667E-02  0.000000E+00
 3.833333E-01  1.666667E-02  0.000000E+00
 4.000000E-01  1.666667E-02  0.000000E+00
 4.166667E-01  1.666667E-02  0.000000E+00
 4.333333E-01  1.666667E-02  0.000000E+00
 4.500000E-01  1.666667E-02  0.000000E+00
 4.666667E-01  1.666667E-02  0.000000E+00
 4.833333E-01  1.666667E-02  0.000000E+00
 5.000000E-01  1.666667E-02  0.000000E+00
 5.166667E-01  1.666667E-02  0.000000E+00
 5.333333E-01  1.666667E-02  0.000000E+00
 5.500000E-01  1.666667E-02  0.000000E+00
 5.666667E-01  1.666667E-02  0.000000E+00
 5.833333E-01  1.666667E-02  0.000000E+00
 6.000000E-01  1.666667E-02  0.000000E+00
 6.166667E-01  1.666667E-02  0.000000E+00
 6.333333E-01  1.666667E-02  0.000000E+00
 6.500000E-01  1.666667E-02  0.000000E+00
 6.666667E-01  1.666667E-02  0.000000E+00
 6.833333E-01  1.666667E-02  0.000000E+00
 7.000000E-01  1.666667E-02  0.000000E+00
 7.166667E-01  1.666667E-02  0.000000E+00
 7.333333E-01  1.666667E-02  0.000000E+00
 7.500000E-01  1.666667E-02  0.000000E+00
 7.666667E-01  1.666667E-02  0.000000E+00
 7.833333E-01  1.666667E-02  0.000000E+00
 8.000000E-01  1.666667E-02  0.000000E+00
 8.166667E-01  1.666667E-02  0.000000E+00
 8.333333E-01  1.666667E-02  0.000000E+00
 8.500000E-01  1.666667E-02  0.000000E+00
 8.666667E-01  1.666667E-02  0.000000E+00
 8.833333E-01  1.666667E-02  0.000000E+00
 9.000000E-01  1.666667E-02  0.000000E+00
 9.166667E-01  1.666667E-02  0.000000E+00
 9.333333E-01  1.666667E-02  0.000000E+00
 9.500000E-01  1.666667E-02  0.000000E+00
 9.666667E-01  1.666667E-02  0.000000E+00
 9.833333E-01  1.666667E-02  0.000000E+00
 1.000000E+00  1.666667E-02  0.000000E+00
 0.000000E+00  3.333333E-02  0.000000E+00
 1.666667E-02  3.333333E-02  0.000000E+00
 3.333333E-02  3.333333E-02  0.000000E+00
 5.000000E-02  3.333333E-02  0.000000E+00
 6.666667E-02  3.333333E-02  0.000000E+00
 8.333333E-02  3.333333E-02  0.000000E+00
 1.000000E-01  3.333333E-02  0.000000E+00
 1.166667E-01  3.333333E-02  0.000000E+00
 1.333333E-01  3.333333E-02  0.000000E+00
 1.500000E-01  3.333333E-02  0.000000E+00
 1.666667E-01  3.333333E-02  0.000000E+00
 1.833333E-01  3.333333E-02  0.000000E+00
 2.000000E-01  3.333333E-02  0.000000E+00
 2.166667E-01  3.333333E-02  0.000000E+00
 2.333333E-01  3.333333E-02  0.000000E+00
 2.500000E-01  3.333333E-02  0.000000E+00
 2.666667E-01  3.333333E-02  0.000000E+00
 2.833333E-01  3.333333E-02  0.000000E+00
 3.000000E-01  3.333333E-02  0.000000E+00
 3.166667E-01  3.333333E-02  0.000000E+00
 3.333333E-01  3.333333E-02  0.000000E+00
 3.500000E-01  3.333333E-02  0.000000E+00
 3.666667E-01  3.333333E-02  0.000000E+00
 3.833333E-01  3.333333E-02  0.000000E+00
 4.000000E-01  3.333333E-02  0.000000E+00
 4.166667E-01  3.333333E-02  0.000000E+00
 4.333333E-01  3.333333E-02  0.000000E+00
 4.500000E-01  3.333333E-02  0.000000E+00
 4.666667E-01  3.333333E-02  0.000000E+00
 4.833333E-01  3.333333E-02  0.000000E+00
 5.000000E-01  3.333333E-02  0.000000E+00
 5.166667E-01  3.333333E-02  0.000000E+00
 5.333333E-01  3.333333E-02  0.000000E+00
 5.500000E-01  3.333333E-02  0.000000E+00
 5.666667E-01  3.333333E-02  0.000000E+00
 5.833333E-01  3.333333E-02  0.000000E+00
 6.000000E-01  3.333333E-02  0.000000E+00
 6.166667E-01  3.333333E-02  0.000000E+00
 6.333333E-01  3.333333E-02  0.000000E+00
 6.500000E-01  3.333333E-02  0.000000E+00
 6.666667E-01  3.333333E-02  0.000000E+00
 6.833333E-01  3.333333E-02  0.000000E+00
 7.000000E-01  3.333333E-02  0.000000E+00
 7.166667E-01  3.333333E-02  0.000000E+00
 7.333333E-01  3.333333E-02  0.000000E+00
 7.500000E-01  3.333333E-02  0.000000E+00
 7.666667E-01  3.333333E-02  0.000000E+00
 7.833333E-01  3.333333E-02  0.000000E+00
 8.000000E-01  3.333333E-02  0.000000E+00
 8.166667E-01  3.333333E-02  0.000000E+00
 8.333333E-01  3.333333E-02  0.000000E+00
 8.500000E-01  3.333333E-02  0.000000E+00
 8.666667E-01  3.333333E-02  0.000000E+00
 8.833333E-01  3.333333E-02  0.000000E+00
 9.000000E-01  3.333333E-02  0.000000E+00
 9.166667E-01  3.333333E-02  0.000000E+00
 9.333333E-01  3.333333E-02  0.000000E+00
 9.500000E-01  3.333333E-02  0.000000E+00
 9.666667E-01  3.333333E-02  0.000000E+00
 9.833333E-01  3.333333E-02  0.000000E+00
 1.000000E+00  3.333333E-02  0.000000E+00
 0.000000E+00  5.000000E-02  0.000000E+00
 1.666667E-02  5.000000E-02  0.000000E+00
 3.333333E-02  5.000000E-02  0.000000E+00
 5.000000E-02  5.000000E-02  0.000000E+00
 6.666667E-02  5.000000E-02  0.000000E+00
 8.333333E-02  5.000000E-02  0.000000E+00
 1.000000E-01  5.000000E-02  0.000000E+00
 1.166667E-01  5.000000E-02  0.000000E+00
 1.333333E-01  5.000000E-02  0.000000E+00
 1.500000E-01  5.000000E-02  0.000000E+00
 1.666667E-01  5.000000E-02  0.000000E+00
 1.833333E-01  5.000000E-02  0.000000E+00
 2.000000E-01  5.000000E-02  0.000000E+00
 2.166667E-01  5.000000E-02  0.000000E+00
 2.333333E-01  5.000000E-02  0.000000E+00
 2.500000E-01  5.000000E-02  0.000000E+00
 2.666667E-01  5.000000E-02  0.000000E+00
 2.833333E-01  5.000000E-02  0.000000E+00
 3.000000E-01  5.000000E-02  0.000000E+00
 3.166667E-01  5.000000E-02  0.000000E+00
 3.333333E-01  5.000000E-02  0.000000E+00
 3.500000E-01  5.000000E-02  0.000000E+00
 3.666667E-01  5.000000E-02  0.000000E+00
 3.833333E-01  5.000000E-02  0.000000E+00
 4.000000E-01  5.000000E-02  0.000000E+00
 4.166667E-01  5.000000E-02  0.000000E+00
 4.333333E-01  5.000000E-02  0.000000E+00
 4.500000E-01  5.000000E-02  0.000000E+00
 4.666667E-01  5.000000E-02  0.000000E+00
 4.833333E-01  5.000000E-02  0.000000E+00
 5.000000E-01  5.000000E-02  0.000000E+00
 5.166667E-01  5.000000E-02  0.000000E+00
 5.333333E-01  5.000000E-02  0.000000E+00
 5.500000E-01  5.000000E-02  0.000000E+00
 5.666667E-01  5.000000E-02  0.000000E+00
 5.833333E-01  5.000000E-02  0.000000E+00
 6.000000E-01  5.000000E-02  0.000000E+00
 6.166667E-01  5.000000E-02  0.000000E+00
 6.333333E-01  5.000000E-02  0.000000E+00
 6.500000E-01  5.000000E-02  0.000000E+00
 6.666667E-01  5.000000E-02  0.000000E+00
 6.833333E-01  5.000000E-02  0.000000E+00
 7.000000E-01  5.000000E-02  0.000000E+00
 7.166667E-01  5.000000E-02  0.000000E+00
 7.333333E-01  5.000000E-02  0.000000E+00
 7.500000E-01  5.000000E-02  0.000000E+00
 7.666667E-01  5.000000E-02  0.000000E+00
 7.833333E-01  5.000000E-02  0.000000E+00
 8.000000E-01  5.000000E-02  0.000000E+00
 8.166667E-01  5.000000E-02  0.000000E+00
 8.333333E-01  5.000000E-02  0.000000E+00
 8.500000E-01  5.000000E-02  0.000000E+00
[...]
POINT_DATA         3721
 SCALARS measuredDisp11 float  1                   
LOOKUP_TABLE default
-1.11020E-03
-1.03794E-03
-1.00321E-03
-9.77807E-04
-9.43659E-04
-9.17208E-04
-8.61514E-04
-8.26026E-04
-7.79833E-04
-7.65293E-04
-7.40116E-04
-6.76993E-04
-6.57727E-04
-6.11539E-04
-5.69964E-04
-5.28216E-04
-4.96885E-04
-4.53589E-04
-4.02795E-04
-3.73295E-04
-3.38053E-04
-3.10378E-04
-2.71188E-04
-2.50870E-04
-1.96542E-04
-1.63019E-04
-1.41296E-04
-1.17333E-04
-6.71586E-05
-3.93930E-05
-4.44262E-06
 4.29060E-05
 7.37355E-05
 8.42180E-05
 1.33152E-04
 1.65572E-04
 2.03520E-04
 2.29372E-04
 2.68681E-04
 3.22103E-04
 3.31702E-04
 3.82010E-04
 4.33560E-04
 4.69176E-04
 4.92774E-04
 5.43382E-04
 5.79147E-04
 6.34347E-04
 6.27927E-04
 7.02711E-04
 6.99760E-04
 7.71554E-04
 7.83950E-04
 8.16267E-04
 8.61563E-04
 8.98737E-04
 9.34052E-04
 9.69866E-04
 1.00522E-03
 1.03811E-03
 1.07961E-03
-1.07247E-03
-1.04746E-03
-9.99520E-04
-9.69177E-04
-9.43002E-04
-9.11070E-04
-8.79456E-04
-8.29859E-04
-8.04646E-04
-7.55275E-04
-7.14075E-04
-6.77549E-04
-6.35377E-04
-5.98427E-04
-5.59746E-04
-5.20349E-04
-4.83526E-04
-4.45858E-04
-4.25143E-04
-3.86664E-04
-3.53449E-04
-3.05836E-04
-2.74261E-04
-2.30235E-04
-1.85408E-04
-1.70671E-04
-1.37912E-04
-1.00546E-04
-7.42611E-05
-2.20386E-05
-6.11495E-06
 3.23255E-05
 4.71735E-05
 1.05326E-04
 1.36408E-04
 1.57528E-04
 1.84716E-04
 2.14784E-04
 2.71758E-04
 3.11530E-04
 3.42153E-04
 3.84340E-04
 3.98196E-04
 4.54298E-04
 4.82695E-04
 5.33344E-04
 5.77215E-04
 6.00832E-04
 6.37348E-04
 6.96276E-04
 7.15976E-04
 7.65180E-04
 7.97277E-04
 8.21280E-04
 8.56805E-04
 9.17141E-04
 9.52766E-04
 9.72195E-04
 1.00722E-03
 1.03914E-03
 1.09366E-03
-1.11305E-03
-1.03943E-03
-1.00704E-03
-9.78612E-04
-9.18680E-04
-9.20376E-04
-8.69673E-04
-8.21550E-04
-7.90570E-04
-7.56451E-04
-6.96939E-04
-6.70505E-04
-6.25907E-04
-5.83253E-04
-5.67246E-04
-5.27108E-04
-4.78594E-04
-4.77880E-04
-4.26837E-04
-3.90039E-04
-3.47733E-04
-3.26748E-04
-2.67313E-04
-2.23202E-04
-1.81524E-04
-1.56452E-04
-1.36917E-04
-9.80072E-05
-8.00808E-05
-2.23790E-05
 5.42338E-06
 2.67903E-05
 7.50011E-05
 1.10780E-04
 1.54979E-04
 1.66165E-04
 1.72061E-04
 2.40053E-04
 2.58073E-04
 3.10667E-04
 3.35721E-04
 3.76428E-04
 4.08645E-04
 4.56069E-04
 4.96396E-04
 5.45838E-04
 5.54373E-04
 6.10480E-04
 6.50895E-04
 6.60416E-04
 7.23773E-04
 7.59873E-04
 7.84829E-04
 8.38665E-04
 8.69888E-04
 9.04521E-04
 9.39314E-04
 9.77396E-04
 1.00750E-03
 1.05436E-03
 1.08576E-03
-1.08685E-03
-1.04434E-03
-1.00379E-03
-9.94648E-04
-9.25781E-04
-9.08067E-04
-8.71321E-04
-8.47353E-04
-7.99758E-04
-7.56929E-04
-7.24962E-04
-6.71616E-04
-6.29176E-04
-6.26651E-04
-5.73820E-04
-5.46811E-04
-4.86422E-04
-4.64831E-04
-4.31858E-04
-3.83437E-04
-3.36945E-04
-2.95570E-04
-2.67317E-04
-2.41176E-04
-1.81967E-04
-1.58578E-04
-1.31710E-04
-9.34286E-05
-5.87326E-05
-5.73792E-05
-4.30399E-06
 2.22561E-05
 6.65376E-05
 1.04924E-04
 1.47733E-04
 1.89532E-04
 2.07185E-04
 2.38499E-04
 2.88589E-04
 3.07388E-04
 3.25576E-04
 4.00054E-04
 4.24366E-04
 4.59906E-04
 4.98982E-04
 5.49139E-04
 5.51454E-04
 6.18270E-04
 6.39723E-04
 6.85440E-04
 7.26552E-04
 7.54583E-04
 7.93911E-04
 8.32022E-04
 8.66528E-04
 8.86189E-04
 9.29505E-04
 1.00746E-03
 1.00280E-03
 1.03763E-03
 1.07081E-03
-1.05782E-03
-1.04124E-03
-9.98578E-04
-9.54367E-04
-9.44195E-04
-8.97072E-04
-8.89210E-04
-8.39433E-04
-7.89303E-04
-7.53892E-04
-7.30705E-04
-6.84766E-04
-6.49078E-04
-6.09696E-04
-5.38651E-04
-5.29914E-04
-4.87200E-04
-4.65869E-04
-4.02955E-04
-3.97029E-04
-3.21056E-04
-3.05511E-04
-2.59919E-04
-2.41107E-04
-2.14178E-04
-1.62742E-04
-1.17705E-04
-8.97382E-05
-5.65632E-05
-4.11460E-05
-7.39651E-06
 2.08888E-05
 5.53925E-05
 9.77290E-05
 1.44618E-04
 1.57127E-04
 2.15623E-04
 2.47828E-04
 2.64554E-04
 3.02968E-04
 3.54143E-04
 3.78003E-04
 4.04247E-04
 4.37721E-04
 4.76052E-04
 5.19338E-04
 5.89568E-04
 6.06021E-04
 6.42914E-04
 6.73548E-04
 7.35738E-04
 7.62437E-04
 8.14750E-04
 8.36501E-04
 8.76004E-04
 9.01496E-04
 9.37441E-04
 9.83782E-04
 9.97594E-04
 1.03846E-03
 1.07175E-03
-1.07334E-03
-1.03245E-03
-1.00966E-03
-9.72357E-04
-9.20058E-04
-8.86487E-04
-8.74488E-04
-8.47270E-04
-7.94993E-04
-7.43701E-04
-7.06119E-04
-6.94708E-04
-6.41671E-04
-6.18911E-04
-5.47081E-04
-5.01731E-04
-5.00750E-04
-4.47670E-04
-4.28403E-04
-3.90488E-04
-3.44554E-04
-3.07526E-04
-2.53081E-04
-2.38554E-04
-2.03412E-04
-1.44118E-04
-1.48452E-04
-1.07146E-04
-5.30798E-05
-4.84046E-05
-8.81305E-06
 4.17832E-05
 5.95322E-05
 9.74700E-05
 1.37522E-04
 1.54069E-04
 2.08248E-04
 2.48093E-04
 2.79708E-04
 3.06990E-04
 3.16396E-04
 3.71814E-04
 3.91974E-04
 4.42411E-04
 4.79442E-04
 5.02292E-04
 5.59079E-04
 6.11751E-04
 6.28208E-04
 6.90075E-04
 7.36524E-04
 7.40063E-04
 8.14257E-04
 8.28608E-04
 8.61858E-04
 9.06603E-04
 9.32764E-04
 9.66796E-04
 9.89902E-04
 1.02527E-03
 1.05386E-03
-1.07993E-03
-1.05002E-03
-1.01131E-03
-9.87784E-04
-9.45046E-04
-9.14543E-04
-8.91098E-04
-8.28260E-04
-8.07149E-04
-7.54700E-04
-7.01688E-04
-6.65453E-04
-6.19187E-04
-5.92881E-04
-5.61992E-04
-5.28895E-04
-4.90411E-04
-4.51976E-04
-4.27651E-04
-3.69949E-04
-3.44654E-04
-2.79933E-04
-2.68596E-04
-2.21067E-04
-1.99165E-04
-1.56197E-04
-1.24775E-04
-1.08684E-04
-6.82483E-05
-2.96089E-05
 3.43701E-06
 2.78496E-05
 8.82212E-05
 9.32300E-05
 1.28897E-04
 1.55418E-04
 1.81121E-04
 2.36060E-04
 2.72689E-04
 2.83456E-04
 3.29803E-04
 3.74278E-04
 4.31144E-04
 4.35295E-04
 4.94130E-04
 5.34045E-04
 5.69739E-04
 5.92586E-04
 6.45391E-04
 6.95157E-04
 7.17409E-04
 7.52240E-04
 8.07368E-04
 8.37467E-04
 8.71643E-04
 8.94594E-04
 9.36340E-04
 9.64333E-04
 1.01856E-03
 1.04475E-03
 1.08501E-03
-1.07585E-03
-1.03297E-03
-9.86469E-04
-9.75160E-04
-9.44029E-04
-9.03810E-04
-8.64280E-04
-8.48047E-04
-7.95959E-04
-7.37932E-04
-7.29091E-04
-6.90262E-04
-6.37606E-04
-5.96050E-04
-5.62746E-04
-5.28350E-04
-4.64726E-04
-4.55709E-04
-3.96860E-04
-3.64665E-04
-3.30150E-04
-2.93389E-04
-2.64476E-04
-2.34390E-04
-2.02863E-04
-1.67325E-04
-1.17228E-04
-1.13038E-04
-6.59647E-05
-3.76339E-05
-1.53047E-06
 5.11710E-05
 5.13912E-05
 9.37780E-05
 1.40372E-04
 1.52163E-04
 1.86000E-04
 2.47938E-04
 2.55507E-04
 3.16655E-04
 3.41904E-04
 3.34254E-04
 4.13696E-04
 4.46500E-04
 4.85064E-04
 5.35061E-04
 5.79814E-04
 5.95792E-04
 6.51800E-04
 6.65205E-04
 7.40787E-04
 7.53261E-04
 7.91138E-04
 8.27274E-04
 8.72050E-04
 9.06669E-04
 9.42363E-04
 9.71437E-04
 1.00828E-03
 1.03436E-03
 1.05862E-03
-1.08019E-03
-1.03418E-03
-1.01079E-03
-9.71136E-04
-9.46626E-04
-8.90685E-04
-8.60868E-04
-8.35279E-04
-8.07397E-04
-7.76450E-04
-7.12666E-04
-6.83694E-04
-6.31824E-04
-6.07121E-04
-5.66034E-04
-5.19337E-04
-4.65825E-04
-4.56378E-04
-3.96473E-04
-3.77870E-04
-3.16192E-04
-2.78919E-04
-2.60372E-04
-2.55404E-04
-2.08331E-04
-1.54421E-04
-1.35577E-04
-9.99340E-05
-6.89342E-05
-3.94461E-05
 1.10188E-05
 1.78542E-05
 4.83878E-05
 1.00826E-04
 1.14697E-04
 1.72174E-04
 2.05687E-04
 2.39066E-04
 2.67354E-04
 3.09524E-04
 3.26188E-04
 3.57925E-04
 3.98521E-04
 4.41657E-04
 4.85571E-04
 5.37522E-04
 5.80315E-04
 5.73887E-04
 6.54642E-04
 6.83460E-04
 6.99908E-04
 7.55055E-04
 7.88589E-04
 8.45836E-04
 8.56034E-04
 8.92463E-04
 9.47925E-04
 9.76935E-04
 9.98737E-04
 1.04317E-03
 1.06655E-03
-1.10041E-03
-1.03507E-03
-1.00893E-03
-9.74800E-04
-9.37775E-04
-9.08963E-04
-8.66567E-04
-8.20586E-04
-7.93076E-04
-7.60119E-04
-7.23102E-04
-6.75660E-04
-6.37653E-04
-6.14961E-04
-5.66112E-04
-5.41315E-04
-4.72430E-04
-4.38968E-04
-4.15366E-04
-3.69882E-04
-3.14530E-04
-2.97707E-04
-2.54168E-04
-2.38098E-04
-1.89384E-04
-1.64392E-04
-1.20535E-04
-9.62495E-05
-6.41879E-05
-4.26058E-05
 2.41464E-05
 3.58723E-05
 7.60209E-05
 8.71311E-05
 1.11320E-04
 1.65300E-04
 2.00140E-04
 2.47893E-04
 2.60632E-04
 3.09068E-04
 3.45049E-04
 3.52617E-04
 4.19377E-04
 4.14976E-04
 4.73170E-04
 5.15668E-04
 5.57095E-04
 5.96480E-04
 6.23149E-04
 6.92678E-04
 7.09695E-04
 7.48635E-04
 7.95373E-04
 8.30376E-04
 8.53672E-04
 8.97366E-04
 9.43647E-04
 9.77601E-04
 1.01466E-03
 1.02976E-03
 1.06024E-03
-1.08262E-03
-1.04253E-03
-1.02973E-03
-9.82375E-04
-9.59538E-04
-8.89969E-04
-8.63197E-04
-8.38158E-04
-7.84716E-04
-7.27270E-04
-7.15218E-04
-6.80395E-04
-6.28877E-04
-5.81592E-04
-5.55611E-04
-5.01858E-04
-4.84576E-04
-4.46750E-04
-4.15916E-04
-3.54643E-04
-3.35480E-04
-2.72080E-04
-2.83590E-04
-2.11835E-04
-1.82780E-04
-1.60267E-04
-1.37927E-04
-1.12477E-04
-7.04730E-05
-2.35584E-05
-1.08635E-05
 7.45729E-06
 4.81346E-05
 1.06323E-04
 1.59725E-04
 1.50240E-04
 1.88022E-04
 2.29836E-04
 2.71282E-04
 2.93414E-04
 3.29544E-04
 3.62357E-04
 4.20657E-04
 4.43290E-04
 4.70963E-04
 4.89584E-04
 5.29209E-04
 5.91230E-04
 6.13737E-04
 6.57895E-04
 7.06034E-04
 7.72180E-04
 7.83709E-04
 8.32697E-04
 8.80512E-04
 9.03497E-04
 9.50631E-04
 9.36488E-04
 1.01405E-03
 1.01655E-03
 1.07405E-03
-1.06841E-03
-1.03087E-03
-1.01833E-03
-9.83852E-04
-9.43464E-04
-8.97692E-04
-8.75300E-04
-8.13833E-04
-7.83982E-04
-7.62017E-04
-7.35084E-04
-6.80284E-04
-6.42213E-04
-5.96239E-04
-5.53447E-04
-5.00373E-04
-4.56514E-04
-4.26631E-04
-4.19530E-04
-3.63958E-04
-3.42540E-04
-3.00186E-04
-2.51252E-04
-2.12825E-04
-2.08020E-04
-1.76973E-04
-1.36469E-04
-1.03195E-04
-5.00356E-05
-3.52312E-05
-1.23021E-05
 4.58782E-05
 6.53659E-05
 8.42531E-05
 1.23490E-04
 1.42853E-04
 1.92451E-04
 2.16421E-04
 2.66294E-04
 3.10058E-04
 2.97781E-04
 3.56558E-04
 3.90996E-04
 4.39697E-04
 4.58526E-04
 5.11730E-04
 5.58764E-04
 5.85133E-04
 6.32955E-04
 6.52913E-04
 7.20591E-04
 7.42644E-04
 7.77993E-04
 8.46078E-04
 8.81600E-04
 8.99355E-04
 9.33914E-04
 9.68670E-04
 1.01783E-03
 1.03702E-03
 1.05794E-03
-1.06588E-03
-1.03429E-03
-1.01606E-03
-9.63362E-04
-9.06495E-04
-8.98602E-04
-8.74932E-04
-8.24665E-04
-7.71717E-04
-7.40796E-04
-7.12633E-04
-6.69423E-04
-6.45424E-04
-5.77743E-04
-5.24484E-04
-4.98440E-04
-4.59987E-04
-4.26769E-04
-3.82923E-04
-3.50363E-04
-3.11633E-04
-3.08651E-04
-2.49685E-04
-2.15639E-04
-1.81951E-04
-1.48513E-04
-1.39446E-04
-7.01944E-05
-7.31039E-05
-1.52609E-05
 9.10603E-06
 4.81684E-05
 6.30506E-05
 9.01469E-05
 1.30422E-04
 1.54153E-04
 1.99532E-04
 2.19203E-04
 2.59889E-04
 2.88581E-04
 3.24797E-04
 3.62251E-04
 3.94222E-04
 4.33600E-04
 4.68906E-04
 4.89646E-04
 5.37569E-04
 6.07815E-04
 6.29982E-04
 6.79229E-04
 6.97977E-04
 7.46905E-04
 7.75126E-04
 8.33130E-04
 8.64137E-04
 9.04135E-04
 9.23970E-04
 9.70612E-04
 1.00090E-03
 1.04149E-03
 1.04531E-03
-1.04693E-03
-1.03072E-03
-9.98091E-04
-9.71254E-04
-9.09802E-04
-9.09149E-04
-8.50203E-04
-7.98500E-04
-7.70905E-04
-7.42779E-04
-6.82334E-04
-6.66680E-04
-6.25759E-04
-5.66294E-04
-5.48920E-04
-5.26650E-04
-4.58920E-04
-4.18891E-04
-3.81359E-04
-3.58076E-04
-3.12494E-04
-2.89824E-04
-2.57888E-04
-2.33708E-04
-1.88356E-04
-1.48481E-04
-1.35165E-04
-1.07287E-04
-7.15493E-05
-3.62165E-05
 6.04807E-06
 1.57587E-05
 5.30850E-05
 9.27704E-05
 1.19207E-04
 1.35359E-04
 1.82886E-04
 2.05099E-04
 2.44128E-04
 2.83872E-04
 3.35251E-04
 3.53731E-04
 3.87115E-04
 4.46519E-04
 4.71314E-04
 4.99750E-04
 5.41472E-04
 5.76883E-04
 6.43038E-04
 6.76807E-04
 7.03162E-04
 7.42358E-04
 7.71722E-04
 8.13226E-04
 8.72090E-04
 8.95019E-04
 9.40343E-04
 9.50094E-04
 9.88456E-04
 1.03924E-03
 1.07612E-03
-1.06190E-03
-1.00761E-03
-9.90366E-04
-9.54666E-04
-9.21653E-04
-8.97283E-04
-8.84294E-04
-8.20757E-04
-7.93413E-04
-7.53798E-04
-6.99518E-04
-6.55703E-04
-6.03519E-04
-5.72449E-04
-5.59536E-04
-4.96993E-04
-4.45063E-04
-4.17220E-04
-3.79098E-04
-3.25810E-04
-3.00253E-04
-2.65768E-04
-2.57105E-04
-2.00948E-04
-1.84302E-04
-1.69999E-04
-1.27876E-04
-7.55211E-05
-6.17401E-05
-2.85596E-05
-9.12753E-07
 4.21093E-05
 3.15010E-05
 8.11044E-05
 1.06385E-04
 1.69280E-04
 1.97362E-04
 2.05821E-04
 2.27627E-04
 2.71695E-04
 3.15611E-04
 3.43538E-04
 3.89945E-04
 4.32674E-04
 4.61039E-04
 4.91220E-04
 5.37339E-04
 5.68208E-04
 6.16806E-04
 6.38887E-04
 6.96743E-04
 7.50592E-04
 7.59180E-04
 8.23202E-04
 8.91924E-04
 8.75331E-04
 9.45731E-04
 9.54105E-04
 1.00463E-03
 1.02643E-03
 1.05909E-03
-1.03966E-03
-1.01232E-03
-9.67822E-04
-9.39474E-04
-9.09952E-04
-8.86256E-04
-8.57336E-04
-8.25378E-04
-7.60688E-04
-7.40130E-04
-7.11898E-04
-6.44457E-04
-6.11422E-04
-5.83831E-04
-5.05192E-04
-4.85902E-04
-4.55770E-04
-4.16957E-04
-3.84747E-04
-3.37082E-04
-3.01812E-04
-2.71747E-04
-2.33394E-04
-1.97295E-04
-1.99886E-04
-1.57245E-04
-1.25289E-04
-8.28468E-05
-4.52114E-05
-2.65413E-05
 1.52880E-05
 3.32313E-05
 4.33455E-05
 1.06975E-04
 1.33603E-04
 1.58582E-04
 1.84195E-04
 2.13401E-04
 2.50178E-04
 2.78291E-04
 2.86951E-04
 3.58594E-04
 3.80434E-04
 4.33909E-04
 4.40740E-04
 4.76660E-04
 5.40983E-04
 5.57083E-04
 6.22563E-04
 6.49027E-04
 7.01308E-04
 7.33230E-04
 7.39709E-04
 8.26082E-04
 8.47887E-04
 8.89156E-04
 9.23060E-04
 9.45690E-04
 9.83510E-04
 1.01576E-03
 1.04731E-03
-1.05115E-03
-9.90554E-04
-9.63064E-04
-9.67455E-04
-9.09290E-04
-8.66649E-04
-8.37264E-04
-7.84873E-04
-7.75320E-04
-7.30841E-04
-6.86024E-04
-6.53457E-04
-6.39060E-04
-5.65510E-04
-5.31222E-04
-4.56755E-04
-4.58104E-04
-4.24610E-04
-3.60081E-04
-3.30586E-04
-3.13225E-04
-2.85485E-04
-2.40757E-04
-2.08726E-04
-1.66383E-04
-1.33233E-04
-1.30135E-04
-9.03184E-05
-6.11416E-05
-2.33699E-05
-2.31973E-06
 3.93002E-05
 4.38441E-05
 1.02489E-04
 1.26476E-04
 1.50091E-04
 1.81140E-04
 2.23902E-04
 2.39457E-04
 2.84977E-04
 2.94111E-04
 3.34463E-04
 3.88774E-04
 3.83170E-04
 4.41916E-04
 4.75579E-04
 5.13789E-04
 5.48255E-04
 6.08774E-04
 6.61290E-04
 6.95788E-04
 7.51340E-04
 7.59049E-04
 8.01974E-04
 8.52526E-04
 8.97521E-04
 9.20636E-04
 9.50700E-04
 9.93395E-04
 1.01447E-03
 1.04353E-03
-1.00722E-03
-1.00327E-03
-9.66491E-04
-9.27577E-04
-9.29132E-04
-8.75333E-04
-8.20135E-04
-7.95869E-04
-7.56337E-04
-7.14298E-04
-6.65085E-04
-6.36952E-04
-6.16337E-04
-5.49599E-04
-5.12317E-04
-4.81297E-04
-4.51393E-04
-3.96123E-04
-3.68807E-04
-3.43939E-04
-3.10461E-04
-2.83085E-04
-2.16325E-04
-1.92357E-04
-1.63708E-04
-1.66145E-04
-1.18820E-04
-9.41296E-05
-7.12639E-05
-5.30669E-05
 8.18496E-06
 4.58548E-05
 6.16416E-05
 9.67942E-05
 1.29237E-04
 1.48396E-04
 1.66130E-04
 2.19935E-04
 2.24664E-04
 2.68516E-04
 3.17389E-04
 3.38621E-04
 3.95827E-04
 3.82850E-04
 4.43303E-04
 4.82886E-04
 5.16576E-04
 5.61325E-04
 5.94563E-04
 6.41341E-04
 6.92110E-04
 7.25382E-04
 7.63562E-04
 7.99898E-04
 8.36198E-04
 8.78889E-04
 9.05814E-04
 9.28737E-04
 9.69570E-04
 1.00243E-03
 1.02473E-03
-1.01358E-03
-9.82429E-04
-9.70831E-04
-9.02595E-04
-9.04674E-04
-8.71205E-04
-8.51273E-04
-7.93272E-04
-7.65173E-04
-7.21020E-04
-6.91488E-04
-6.51424E-04
-5.97974E-04
-5.56169E-04
-5.11003E-04
-4.67668E-04
-4.59764E-04
-4.02303E-04
-3.79198E-04
-3.18258E-04
-3.20524E-04
-3.01087E-04
-2.30399E-04
-2.32660E-04
-1.94954E-04
-1.32124E-04
-1.13723E-04
-8.98878E-05
-7.43530E-05
-5.92381E-05
-9.95895E-06
 3.12049E-05
 5.56339E-05
 7.11297E-05
 1.21643E-04
 1.40563E-04
 1.76837E-04
 1.92406E-04
 2.27423E-04
 2.73863E-04
 2.89983E-04
 3.60117E-04
 3.50817E-04
 4.01732E-04
 4.36137E-04
 4.67715E-04
 5.06192E-04
 5.46866E-04
 5.84786E-04
 6.45163E-04
 6.96091E-04
 7.33982E-04
 7.62267E-04
 7.79252E-04
 8.29779E-04
 8.43813E-04
 9.08400E-04
 9.02016E-04
 9.65649E-04
 9.96912E-04
 1.00633E-03
-9.81717E-04
-9.73285E-04
-9.27795E-04
-9.09769E-04
-8.60347E-04
-8.63311E-04
-8.36978E-04
-7.85523E-04
-7.48087E-04
-7.16047E-04
-6.59928E-04
-6.18205E-04
-5.88485E-04
-5.29612E-04
-5.02227E-04
-4.47521E-04
-4.23883E-04
-3.90443E-04
-3.68026E-04
-3.36187E-04
-2.99421E-04
-2.75044E-04
-2.41391E-04
-2.10767E-04
-1.85758E-04
-1.37600E-04
-1.38091E-04
-1.07958E-04
-5.15512E-05
-1.37092E-05
 8.56981E-06
 3.33382E-05
 7.95889E-05
 7.07185E-05
 1.23928E-04
 1.45269E-04
 1.92093E-04
 1.95397E-04
 2.36563E-04
 2.76059E-04
 2.98121E-04
 3.24828E-04
 3.48924E-04
 3.90984E-04
 4.04315E-04
 4.61148E-04
 4.80095E-04
 5.57593E-04
 6.08870E-04
 6.50852E-04
 6.59327E-04
 7.06106E-04
 7.36653E-04
 7.87855E-04
 8.19820E-04
 8.49532E-04
 8.84833E-04
 9.20851E-04
 9.50634E-04
 9.76273E-04
 1.02065E-03
-9.97453E-04
-9.57770E-04
-9.27222E-04
-8.98296E-04
-8.55939E-04
-8.24321E-04
-7.96710E-04
-7.81359E-04
-7.49164E-04
-7.03890E-04
-6.46467E-04
-6.12278E-04
-5.74378E-04
-5.43128E-04
-4.97401E-04
-4.56259E-04
-4.20560E-04
-3.88594E-04
-3.75296E-04
-3.15574E-04
-2.99407E-04
-2.72631E-04
-2.27432E-04
-2.08980E-04
-1.83243E-04
-1.69934E-04
-1.25282E-04
-7.11130E-05
-6.69273E-05
-1.85061E-05
-1.11554E-05
 3.29164E-05
 4.38535E-05
 8.07820E-05
 1.30234E-04
 1.52353E-04
 1.78083E-04
 2.07614E-04
 2.41159E-04
 2.57756E-04
 2.96858E-04
 3.41195E-04
 3.64189E-04
 4.01660E-04
 4.21537E-04
 4.45039E-04
 5.12410E-04
 5.34327E-04
 5.80103E-04
 6.21436E-04
 6.43623E-04
 7.05891E-04
 7.24338E-04
 7.64458E-04
 7.95949E-04
 8.28564E-04
 8.60741E-04
 8.96594E-04
 9.36759E-04
 9.52585E-04
 9.94212E-04
-9.86997E-04
-9.74075E-04
-9.28148E-04
-8.77101E-04
-8.52084E-04
-8.16628E-04
-7.95237E-04
-7.41948E-04
-7.29788E-04
-6.93537E-04
-6.73423E-04
-6.08887E-04
-5.89451E-04
-5.19405E-04
-4.96941E-04
-4.43242E-04
-4.33663E-04
-3.87343E-04
-3.51535E-04
-3.29130E-04
-3.05615E-04
-2.65040E-04
-2.47076E-04
-2.17139E-04
-1.70681E-04
-1.44134E-04
-1.39609E-04
-8.62147E-05
-5.09816E-05
-5.94881E-05
 5.01113E-06
 4.55430E-05
 4.32576E-05
 1.07723E-04
 1.31329E-04
 1.32928E-04
 1.76342E-04
 2.15172E-04
 2.41717E-04
 2.79220E-04
 2.89786E-04
 3.20395E-04
 3.52907E-04
 3.79314E-04
 4.41338E-04
 4.52331E-04
 5.03707E-04
 5.28388E-04
 5.56373E-04
 6.07585E-04
 6.53180E-04
 6.73185E-04
 7.21020E-04
 7.49675E-04
 7.85911E-04
 8.06229E-04
 8.51443E-04
 8.94209E-04
 9.11146E-04
 9.75561E-04
 9.92760E-04
-9.36599E-04
-9.13064E-04
-8.74713E-04
-8.59057E-04
-8.33133E-04
-7.84227E-04
-7.83912E-04
-7.46234E-04
-6.87500E-04
-6.48299E-04
-6.39966E-04
-6.00914E-04
-5.72687E-04
-5.22420E-04
-5.11131E-04
-4.42712E-04
-4.31738E-04
-3.88790E-04
-3.67645E-04
-3.50666E-04
-2.71371E-04
-2.86038E-04
-2.57538E-04
-2.39565E-04
-1.99459E-04
-1.50877E-04
-1.38184E-04
-9.87661E-05
-7.20418E-05
-8.83156E-06
 1.85975E-06
 4.14641E-05
 8.30719E-05
 1.04864E-04
 1.22889E-04
 1.66042E-04
 1.77359E-04
 2.26282E-04
 2.57502E-04
 2.75235E-04
 3.10322E-04
 3.29124E-04
 3.78844E-04
 3.70515E-04
 4.27566E-04
 4.59427E-04
 5.04932E-04
 5.13528E-04
 5.52192E-04
 5.93621E-04
 6.34900E-04
 6.79158E-04
 6.93901E-04
 7.41505E-04
 7.64669E-04
 8.23223E-04
 8.32671E-04
 8.69494E-04
 8.79848E-04
 9.50997E-04
 9.26543E-04
-9.26731E-04
-8.78797E-04
-8.69493E-04
-8.41145E-04
-8.11971E-04
-7.67275E-04
-7.49447E-04
-6.98706E-04
-6.78714E-04
-6.43288E-04
-5.95894E-04
-5.83645E-04
-5.75915E-04
-5.37245E-04
-5.09951E-04
-4.73288E-04
-4.43036E-04
-3.91284E-04
-3.69411E-04
-3.69530E-04
-3.18982E-04
-2.83025E-04
-2.87822E-04
-2.17532E-04
-1.99799E-04
-1.54758E-04
-1.29140E-04
-1.24586E-04
-6.95185E-05
-3.87236E-05
 1.25068E-05
 3.94512E-05
 6.82722E-05
 1.09842E-04
 1.45457E-04
 1.72285E-04
 2.00224E-04
 2.29788E-04
 2.61622E-04
 2.88439E-04
 3.31321E-04
 3.64409E-04
 3.83576E-04
 4.09495E-04
 4.33818E-04
 4.54754E-04
 4.99534E-04
 5.32572E-04
 5.37026E-04
 5.85714E-04
 5.96771E-04
 6.30496E-04
 6.69012E-04
 7.22581E-04
 7.42544E-04
 7.53385E-04
 8.06784E-04
 8.40609E-04
 8.52255E-04
 9.13472E-04
 9.39488E-04
-8.86223E-04
-8.64689E-04
-8.44544E-04
-7.96074E-04
-7.98605E-04
-7.53850E-04
-7.13252E-04
-6.72829E-04
-6.31817E-04
-6.23205E-04
-5.77258E-04
-5.67599E-04
-5.33393E-04
-5.34610E-04
-5.00960E-04
-5.06520E-04
-4.52973E-04
-4.40737E-04
-3.88963E-04
-3.53599E-04
-3.37111E-04
-2.98459E-04
-2.68834E-04
-2.34033E-04
-2.32544E-04
-1.61915E-04
-1.46938E-04
-9.38565E-05
-6.72602E-05
-4.36918E-05
 1.87271E-06
 3.88093E-05
 8.15482E-05
 1.05416E-04
 1.46885E-04
 1.82080E-04
 2.08963E-04
 2.51132E-04
 2.87513E-04
 3.06254E-04
 3.30762E-04
 3.69437E-04
 4.00929E-04
 4.33825E-04
 4.77777E-04
 4.94682E-04
 4.99315E-04
 5.30729E-04
 5.30041E-04
 5.35432E-04
 5.76673E-04
 5.83293E-04
 6.44202E-04
 6.88997E-04
 7.06735E-04
 7.45291E-04
 7.74315E-04
 7.96235E-04
 8.26878E-04
 8.70922E-04
 9.18435E-04
-8.66447E-04
-8.32254E-04
-8.00158E-04
-7.62193E-04
-7.53784E-04
-6.97939E-04