# vtk DataFile Version 2.0
Output of NLACE
ASCII
DATASET UNSTRUCTURED_GRID
POINTS          216 FLOAT
 0.000000E+00  0.000000E+00  0.000000E+00
 2.000000E+00  0.000000E+00  0.000000E+00
 4.000000E+00  0.000000E+00  0.000000E+00
 6.000000E+00  0.000000E+00  0.000000E+00
 8.000000E+00  0.000000E+00  0.000000E+00
 1.000000E+01  0.000000E+00  0.000000E+00
 0.000000E+00  2.000000E+00  0.000000E+00
 2.000000E+00  2.000000E+00  0.000000E+00
 4.000000E+00  2.000000E+00  0.000000E+00
 6.000000E+00  2.000000E+00  0.000000E+00
 8.000000E+00  2.000000E+00  0.000000E+00
 1.000000E+01  2.000000E+00  0.000000E+00
 0.000000E+00  4.000000E+00  0.000000E+00
 2.000000E+00  4.000000E+00  0.000000E+00
 4.000000E+00  4.000000E+00  0.000000E+00
 6.000000E+00  4.000000E+00  0.000000E+00
 8.000000E+00  4.000000E+00  0.000000E+00
 1.000000E+01  4.000000E+00  0.000000E+00
 0.000000E+00  6.000000E+00  0.000000E+00
 2.000000E+00  6.000000E+00  0.000000E+00
 4.000000E+00  6.000000E+00  0.000000E+00
 6.000000E+00  6.000000E+00  0.000000E+00
 8.000000E+00  6.000000E+00  0.000000E+00
 1.000000E+01  6.000000E+00  0.000000E+00
 0.000000E+00  8.000000E+00  0.000000E+00
 2.000000E+00  8.000000E+00  0.000000E+00
 4.000000E+00  8.000000E+00  0.000000E+00
 6.000000E+00  8.000000E+00  0.000000E+00
 8.000000E+00  8.000000E+00  0.000000E+00
 1.000000E+01  8.000000E+00  0.000000E+00
 0.000000E+00  1.000000E+01  0.000000E+00
 2.000000E+00  1.000000E+01  0.000000E+00
 4.000000E+00  1.000000E+01  0.000000E+00
 6.000000E+00  1.000000E+01  0.000000E+00
 8.000000E+00  1.000000E+01  0.000000E+00
 1.000000E+01  1.000000E+01  0.000000E+00
 0.000000E+00  0.000000E+00 -2.000000E+00
 2.000000E+00  0.000000E+00 -2.000000E+00
 4.000000E+00  0.000000E+00 -2.000000E+00
 6.000000E+00  0.000000E+00 -2.000000E+00
 8.000000E+00  0.000000E+00 -2.000000E+00
 1.000000E+01  0.000000E+00 -2.000000E+00
 0.000000E+00  2.000000E+00 -2.000000E+00
 2.000000E+00  2.000000E+00 -2.000000E+00
 4.000000E+00  2.000000E+00 -2.000000E+00
 6.000000E+00  2.000000E+00 -2.000000E+00
 8.000000E+00  2.000000E+00 -2.000000E+00
 1.000000E+01  2.000000E+00 -2.000000E+00
 0.000000E+00  4.000000E+00 -2.000000E+00
 2.000000E+00  4.000000E+00 -2.000000E+00
 4.000000E+00  4.000000E+00 -2.000000E+00
 6.000000E+00  4.000000E+00 -2.000000E+00
 8.000000E+00  4.000000E+00 -2.000000E+00
 1.000000E+01  4.000000E+00 -2.000000E+00
 0.000000E+00  6.000000E+00 -2.000000E+00
 2.000000E+00  6.000000E+00 -2.000000E+00
 4.000000E+00  6.000000E+00 -2.000000E+00
 6.000000E+00  6.000000E+00 -2.000000E+00
 8.000000E+00  6.000000E+00 -2.000000E+00
 1.000000E+01  6.000000E+00 -2.000000E+00
 0.000000E+00  8.000000E+00 -2.000000E+00
 2.000000E+00  8.000000E+00 -2.000000E+00
 4.000000E+00  8.000000E+00 -2.000000E+00
 6.000000E+00  8.000000E+00 -2.000000E+00
 8.000000E+00  8.000000E+00 -2.000000E+00
 1.000000E+01  8.000000E+00 -2.000000E+00
 0.000000E+00  1.000000E+01 -2.000000E+00
 2.000000E+00  1.000000E+01 -2.000000E+00
 4.000000E+00  1.000000E+01 -2.000000E+00
 6.000000E+00  1.000000E+01 -2.000000E+00
 8.000000E+00  1.000000E+01 -2.000000E+00
 1.000000E+01  1.000000E+01 -2.000000E+00
 0.000000E+00  0.000000E+00 -4.000000E+00
 2.000000E+00  0.000000E+00 -4.000000E+00
 4.000000E+00  0.000000E+00 -4.000000E+00
 6.000000E+00  0.000000E+00 -4.000000E+00
 8.000000E+00  0.000000E+00 -4.000000E+00
 1.000000E+01  0.000000E+00 -4.000000E+00
 0.000000E+00  2.000000E+00 -4.000000E+00
 2.000000E+00  2.000000E+00 -4.000000E+00
 4.000000E+00  2.000000E+00 -4.000000E+00
 6.000000E+00  2.000000E+00 -4.000000E+00
 8.000000E+00  2.000000E+00 -4.000000E+00
 1.000000E+01  2.000000E+00 -4.000000E+00
 0.000000E+00  4.000000E+00 -4.000000E+00
 2.000000E+00  4.000000E+00 -4.000000E+00
 4.000000E+00  4.000000E+00 -4.000000E+00
 6.000000E+00  4.000000E+00 -4.000000E+00
 8.000000E+00  4.000000E+00 -4.000000E+00
 1.000000E+01  4.000000E+00 -4.000000E+00
 0.000000E+00  6.000000E+00 -4.000000E+00
 2.000000E+00  6.000000E+00 -4.000000E+00
 4.000000E+00  6.000000E+00 -4.000000E+00
 6.000000E+00  6.000000E+00 -4.000000E+00
 8.000000E+00  6.000000E+00 -4.000000E+00
 1.000000E+01  6.000000E+00 -4.000000E+00
 0.000000E+00  8.000000E+00 -4.000000E+00
 2.000000E+00  8.000000E+00 -4.000000E+00
 4.000000E+00  8.000000E+00 -4.000000E+00
 6.000000E+00  8.000000E+00 -4.000000E+00
 8.000000E+00  8.000000E+00 -4.000000E+00
 1.000000E+01  8.000000E+00 -4.000000E+00
 0.000000E+00  1.000000E+01 -4.000000E+00
 2.000000E+00  1.000000E+01 -4.000000E+00
 4.000000E+00  1.000000E+01 -4.000000E+00
 6.000000E+00  1.000000E+01 -4.000000E+00
 8.000000E+00  1.000000E+01 -4.000000E+00
 1.000000E+01  1.000000E+01 -4.000000E+00
 0.000000E+00  0.000000E+00 -6.000000E+00
 2.000000E+00  0.000000E+00 -6.000000E+00
 4.000000E+00  0.000000E+00 -6.000000E+00
 6.000000E+00  0.000000E+00 -6.000000E+00
 8.000000E+00  0.000000E+00 -6.000000E+00
 1.000000E+01  0.000000E+00 -6.000000E+00
 0.000000E+00  2.000000E+00 -6.000000E+00
 2.000000E+00  2.000000E+00 -6.000000E+00
 4.000000E+00  2.000000E+00 -6.000000E+00
 6.000000E+00  2.000000E+00 -6.000000E+00
 8.000000E+00  2.000000E+00 -6.000000E+00
 1.000000E+01  2.000000E+00 -6.000000E+00
 0.000000E+00  4.000000E+00 -6.000000E+00
 2.000000E+00  4.000000E+00 -6.000000E+00
 4.000000E+00  4.000000E+00 -6.000000E+00
 6.000000E+00  4.000000E+00 -6.000000E+00
 8.000000E+00  4.000000E+00 -6.000000E+00
 1.000000E+01  4.000000E+00 -6.000000E+00
 0.000000E+00  6.000000E+00 -6.000000E+00
 2.000000E+00  6.000000E+00 -6.000000E+00
 4.000000E+00  6.000000E+00 -6.000000E+00
 6.000000E+00  6.000000E+00 -6.000000E+00
 8.000000E+00  6.000000E+00 -6.000000E+00
 1.000000E+01  6.000000E+00 -6.000000E+00
 0.000000E+00  8.000000E+00 -6.000000E+00
 2.000000E+00  8.000000E+00 -6.000000E+00
 4.000000E+00  8.000000E+00 -6.000000E+00
 6.000000E+00  8.000000E+00 -6.000000E+00
 8.000000E+00  8.000000E+00 -6.000000E+00
 1.000000E+01  8.000000E+00 -6.000000E+00
 0.000000E+00  1.000000E+01 -6.000000E+00
 2.000000E+00  1.000000E+01 -6.000000E+00
 4.000000E+00  1.000000E+01 -6.000000E+00
 6.000000E+00  1.000000E+01 -6.000000E+00
 8.000000E+00  1.000000E+01 -6.000000E+00
 1.000000E+01  1.000000E+01 -6.000000E+00
 0.000000E+00  0.000000E+00 -8.000000E+00
 2.000000E+00  0.000000E+00 -8.000000E+00
 4.000000E+00  0.000000E+00 -8.000000E+00
 6.000000E+00  0.000000E+00 -8.000000E+00
 8.000000E+00  0.000000E+00 -8.000000E+00
 1.000000E+01  0.000000E+00 -8.000000E+00
 0.000000E+00  2.000000E+00 -8.000000E+00
 2.000000E+00  2.000000E+00 -8.000000E+00
 4.000000E+00  2.000000E+00 -8.000000E+00
 6.000000E+00  2.000000E+00 -8.000000E+00
 8.000000E+00  2.000000E+00 -8.000000E+00
 1.000000E+01  2.000000E+00 -8.000000E+00
 0.000000E+00  4.000000E+00 -8.000000E+00
 2.000000E+00  4.000000E+00 -8.000000E+00
 4.000000E+00  4.000000E+00 -8.000000E+00
 6.000000E+00  4.000000E+00 -8.000000E+00
 8.000000E+00  4.000000E+00 -8.000000E+00
 1.000000E+01  4.000000E+00 -8.000000E+00
 0.000000E+00  6.000000E+00 -8.000000E+00
 2.000000E+00  6.000000E+00 -8.000000E+00
 4.000000E+00  6.000000E+00 -8.000000E+00
 6.000000E+00  6.000000E+00 -8.000000E+00
 8.000000E+00  6.000000E+00 -8.000000E+00
 1.000000E+01  6.000000E+00 -8.000000E+00
 0.000000E+00  8.000000E+00 -8.000000E+00
 2.000000E+00  8.000000E+00 -8.000000E+00
 4.000000E+00  8.000000E+00 -8.000000E+00
 6.000000E+00  8.000000E+00 -8.000000E+00
 8.000000E+00  8.000000E+00 -8.000000E+00
 1.000000E+01  8.000000E+00 -8.000000E+00
 0.000000E+00  1.000000E+01 -8.000000E+00
 2.000000E+00  1.000000E+01 -8.000000E+00
 4.000000E+00  1.000000E+01 -8.000000E+00
 6.000000E+00  1.000000E+01 -8.000000E+00
 8.000000E+00  1.000000E+01 -8.000000E+00
 1.000000E+01  1.000000E+01 -8.000000E+00
 0.000000E+00  0.000000E+00 -1.000000E+01
 2.000000E+00  0.000000E+00 -1.000000E+01
 4.000000E+00  0.000000E+00 -1.000000E+01
 6.000000E+00  0.000000E+00 -1.000000E+01
 8.000000E+00  0.000000E+00 -1.000000E+01
 1.000000E+01  0.000000E+00 -1.000000E+01
 0.000000E+00  2.000000E+00 -1.000000E+01
 2.000000E+00  2.000000E+00 -1.000000E+01
 4.000000E+00  2.000000E+00 -1.000000E+01
 6.000000E+00  2.000000E+00 -1.000000E+01
 8.000000E+00  2.000000E+00 -1.000000E+01
 1.000000E+01  2.000000E+00 -1.000000E+01
 0.000000E+00  4.000000E+00 -1.000000E+01
 2.000000E+00  4.000000E+00 -1.000000E+01
 4.000000E+00  4.000000E+00 -1.000000E+01
 6.000000E+00  4.000000E+00 -1.000000E+01
 8.000000E+00  4.000000E+00 -1.000000E+01
 1.000000E+01  4.000000E+00 -1.000000E+01
 0.000000E+00  6.000000E+00 -1.000000E+01
 2.000000E+00  6.000000E+00 -1.000000E+01
 4.000000E+00  6.000000E+00 -1.000000E+01
 6.000000E+00  6.000000E+00 -1.000000E+01
 8.000000E+00  6.000000E+00 -1.000000E+01
 1.000000E+01  6.000000E+00 -1.000000E+01
 0.000000E+00  8.000000E+00 -1.000000E+01
 2.000000E+00  8.000000E+00 -1.000000E+01
 4.000000E+00  8.000000E+00 -1.000000E+01
 6.000000E+00  8.000000E+00 -1.000000E+01
 8.000000E+00  8.000000E+00 -1.000000E+01
 1.000000E+01  8.000000E+00 -1.000000E+01
 0.000000E+00  1.000000E+01 -1.000000E+01
 2.000000E+00  1.000000E+01 -1.000000E+01
 4.000000E+00  1.000000E+01 -1.000000E+01
 6.000000E+00  1.000000E+01 -1.000000E+01
 8.000000E+00  1.000000E+01 -1.000000E+01
 1.000000E+01  1.000000E+01 -1.000000E+01
CELLS          625        3125
4    0   36   42   37
4    7   42   43   37
4    7   42   37    0
4    7    0    6   42
4    1    0    7   37
4    7   37   43   44
4    2   37   44   38
4    2   37    7   44
4    1   37    7    2
4    8    7   44    2
4    2   38   44   39
4    9   44   45   39
4    9   44   39    2
4    9    2    8   44
4    3    2    9   39
4    9   39   45   46
4    4   39   46   40
4    4   39    9   46
4    3   39    9    4
4   10    9   46    4
4    4   40   46   41
4   11   46   47   41
4   11   46   41    4
4   11    4   10   46
4    5    4   11   41
4   12   42   48   49
4    7   42   49   43
4    7   42   12   49
4    6   42   12    7
4   13   12   49    7
4    7   43   49   44
4   14   49   50   44
4   14   49   44    7
4   14    7   13   49
4    8    7   14   44
4   14   44   50   51
[...]
POINT_DATA          216
 SCALARS measuredDisp11 float  1                   
LOOKUP_TABLE default
 0.00000E+00
 1.04687E-01
 2.09374E-01
 3.14061E-01
 4.18748E-01
 5.23435E-01
 0.00000E+00
 1.04687E-01
 2.09374E-01
 3.14061E-01
 4.18748E-01
 5.23435E-01
 0.00000E+00
 1.04687E-01
 2.09374E-01
 3.14061E-01
 4.18748E-01
 5.23435E-01
 0.00000E+00
 1.04687E-01
 2.09374E-01
 3.14061E-01
 4.18748E-01
 5.23435E-01
 0.00000E+00
 1.04687E-01
 2.09374E-01
 3.14061E-01
 4.18748E-01
 5.23435E-01
 0.00000E+00
 1.04687E-01
 2.09374E-01
 3.14061E-01
 4.18748E-01
 5.23435E-01
 0.00000E+00
 1.04687E-01
 2.09374E-01
 3.14061E-01
 4.18748E-01
 5.23435E-01
 0.00000E+00
 1.04687E-01
 2.09374E-01
 3.14061E-01
 4.18748E-01
 5.23435E-01
 0.00000E+00
 1.04687E-01
 2.09374E-01
 3.14061E-01
 4.18748E-01
 5.23435E-01
 0.00000E+00
 1.04687E-01
 2.09374E-01
 3.14061E-01
 4.18748E-01
 5.23435E-01
 0.00000E+00
 1.04687E-01
 2.09374E-01
 3.14061E-01
 4.18748E-01
 5.23435E-01
 0.00000E+00
 1.04687E-01
 2.09374E-01
 3.14061E-01
 4.18748E-01
 5.23435E-01
 0.00000E+00
 1.04687E-01
 2.09374E-01
 3.14061E-01
 4.18748E-01
 5.23435E-01
 0.00000E+00
 1.04687E-01
 2.09374E-01
 3.14061E-01
 4.18748E-01
 5.23435E-01
 0.00000E+00
 1.04687E-01
 2.09374E-01
 3.14061E-01
 4.18748E-01
 5.23435E-01
 0.00000E+00
 1.04687E-01
 2.09374E-01
 3.14061E-01
 4.18748E-01
 5.23435E-01
 0.00000E+00
 1.04687E-01
 2.09374E-01
 3.14061E-01
 4.18748E-01
 5.23435E-01
 0.00000E+00
 1.04687E-01
 2.09374E-01
 3.14061E-01
 4.18748E-01
 5.23435E-01
 0.00000E+00
 1.04687E-01
 2.09374E-01
 3.14061E-01
 4.18748E-01
 5.23435E-01
 0.00000E+00
 1.04687E-01
 2.09374E-01
 3.14061E-01
 4.18748E-01
 5.23435E-01
 0.00000E+00
 1.04687E-01
 2.09374E-01
 3.14061E-01
 4.18748E-01
 5.23435E-01
 0.00000E+00
 1.04687E-01
 2.09374E-01
 3.14061E-01
 4.18748E-01
 5.23435E-01
 0.00000E+00
 1.04687E-01
 2.09374E-01
 3.14061E-01
 4.18748E-01
 5.23435E-01
 0.00000E+00
 1.04687E-01
 2.09374E-01
 3.14061E-01
 4.18748E-01
 5.23435E-01
 0.00000E+00
 1.04687E-01
 2.09374E-01
 3.14061E-01
 4.18748E-01
 5.23435E-01
 0.00000E+00
 1.04687E-01
 2.09374E-01
 3.14061E-01
 4.18748E-01
 5.23435E-01
 0.00000E+00
 1.04687E-01
 2.09374E-01
 3.14061E-01
 4.18748E-01
 5.23435E-01
 0.00000E+00
 1.04687E-01
 2.09374E-01
 3.14061E-01
 4.18748E-01
 5.23435E-01
 0.00000E+00
 1.04687E-01
 2.09374E-01
 3.14061E-01
 4.18748E-01
 5.23435E-01
 0.00000E+00
 1.04687E-01
 2.09374E-01
 3.14061E-01
 4.18748E-01
 5.23435E-01
 0.00000E+00
 1.04687E-01
 2.09374E-01
 3.14061E-01
 4.18748E-01
 5.23435E-01
 0.00000E+00
 1.04687E-01
 2.09374E-01
 3.14061E-01
 4.18748E-01
 5.23435E-01
 0.00000E+00
 1.04687E-01
 2.09374E-01
 3.14061E-01
 4.18748E-01
 5.23435E-01
 0.00000E+00
 1.04687E-01
 2.09374E-01
 3.14061E-01
 4.18748E-01
 5.23435E-01
 0.00000E+00
 1.04687E-01
 2.09374E-01
 3.14061E-01
 4.18748E-01
 5.23435E-01
 0.00000E+00
 1.04687E-01
 2.09374E-01
 3.14061E-01
 4.18748E-01
 5.23435E-01
 SCALARS measuredDisp12 float  1                   
LOOKUP_TABLE default
 0.00000E+00
 0.00000E+00
 0.00000E+00
 0.00000E+00
 0.00000E+00
 0.00000E+00
 1.04687E-01
 1.04687E-01
 1.04687E-01
 1.04687E-01
 1.04687E-01
 1.04687E-01
 2.09374E-01
 2.09374E-01
 2.09374E-01
 2.09374E-01
 2.09374E-01
 2.09374E-01
 3.14061E-01
 3.14061E-01
 3.14061E-01
 3.14061E-01
 3.14061E-01
 3.14061E-01
 4.18748E-01
 4.18748E-01
 4.18748E-01
 4.18748E-01
 4.18748E-01
 4.18748E-01
 5.23435E-01
 5.23435E-01
 5.23435E-01
 5.23435E-01
 5.23435E-01
 5.23435E-01
 0.00000E+00
 0.00000E+00
 0.00000E+00
 0.00000E+00
 0.00000E+00
 0.00000E+00
 1.04687E-01
 1.04687E-01
 1.04687E-01
 1.04687E-01
 1.04687E-01
 1.04687E-01
 2.09374E-01
 2.09374E-01
 2.09374E-01
 2.09374E-01
 2.09374E-01
 2.09374E-01
 3.14061E-01
 3.14061E-01
 3.14061E-01
 3.14061E-01
 3.14061E-01
 3.14061E-01
 4.18748E-01
 4.18748E-01
 4.18748E-01
 4.18748E-01
 4.18748E-01
 4.18748E-01
 5.23435E-01
 5.23435E-01
 5.23435E-01
 5.23435E-01
 5.23435E-01
 5.23435E-01
 0.00000E+00
 0.00000E+00
 0.00000E+00
 0.00000E+00
 0.00000E+00
 0.00000E+00
 1.04687E-01
 1.04687E-01
 1.04687E-01
 1.04687E-01
 1.04687E-01
 1.04687E-01
 2.09374E-01
 2.09374E-01
 2.09374E-01
 2.09374E-01
 2.09374E-01
 2.09374E-01
 3.14061E-01
 3.14061E-01
 3.14061E-01
 3.14061E-01
 3.14061E-01
 3.14061E-01
 4.18748E-01
 4.18748E-01
 4.18748E-01
 4.18748E-01
 4.18748E-01
 4.18748E-01
 5.23435E-01
 5.23435E-01
 5.23435E-01
 5.23435E-01
 5.23435E-01
 5.23435E-01
 0.00000E+00
 0.00000E+00
 0.00000E+00
 0.00000E+00
 0.00000E+00
 0.00000E+00
 1.04687E-01
 1.04687E-01
 1.04687E-01
 1.04687E-01
 1.04687E-01
 1.04687E-01
 2.09374E-01
 2.09374E-01
 2.09374E-01
 2.09374E-01
 2.09374E-01
 2.09374E-01
 3.14061E-01
 3.14061E-01
 3.14061E-01
 3.14061E-01
 3.14061E-01
 3.14061E-01
 4.18748E-01
 4.18748E-01
 4.18748E-01
 4.18748E-01
 4.18748E-01
 4.18748E-01
 5.23435E-01
 5.23435E-01
 5.23435E-01
 5.23435E-01
 5.23435E-01
 5.23435E-01
 0.00000E+00
 0.00000E+00
 0.00000E+00
 0.00000E+00
 0.00000E+00
 0.00000E+00
 1.04687E-01
 1.04687E-01
 1.04687E-01
 1.04687E-01
 1.04687E-01
 1.04687E-01
 2.09374E-01
 2.09374E-01
 2.09374E-01
 2.09374E-01
 2.09374E-01
 2.09374E-01
 3.14061E-01
 3.14061E-01
 3.14061E-01
 3.14061E-01
 3.14061E-01
 3.14061E-01
 4.18748E-01
 4.18748E-01
 4.18748E-01
 4.18748E-01
 4.18748E-01
 4.18748E-01
 5.23435E-01
 5.23435E-01
 5.23435E-01
 5.23435E-01
 5.23435E-01
 5.23435E-01
 0.00000E+00
 0.00000E+00
 0.00000E+00
 0.00000E+00
 0.00000E+00
 0.00000E+00
 1.04687E-01
 1.04687E-01
 1.04687E-01
 1.04687E-01
 1.04687E-01
 1.04687E-01
 2.09374E-01
 2.09374E-01
 2.09374E-01
 2.09374E-01
 2.09374E-01
 2.09374E-01
 3.14061E-01
 3.14061E-01
 3.14061E-01
 3.14061E-01
 3.14061E-01
 3.14061E-01
 4.18748E-01
 4.18748E-01
 4.18748E-01
 4.18748E-01
 4.18748E-01
 4.18748E-01
 5.23435E-01
 5.23435E-01
 5.23435E-01
 5.23435E-01
 5.23435E-01
 5.23435E-01
 SCALARS measuredDisp13 float  1                   
LOOKUP_TABLE default
 0.00000E+00
 0.00000E+00
 0.00000E+00
 0.00000E+00
 0.00000E+00
 0.00000E+00
 0.00000E+00
 0.00000E+00
 0.00000E+00
 0.00000E+00
 0.00000E+00
 0.00000E+00
 0.00000E+00
 0.00000E+00
 0.00000E+00
 0.00000E+00
 0.00000E+00
 0.00000E+00
 0.00000E+00
 0.00000E+00
 0.00000E+00
 0.00000E+00
 0.00000E+00
 0.00000E+00
 0.00000E+00
 0.00000E+00
 0.00000E+00
 0.00000E+00
 0.00000E+00
 0.00000E+00
 0.00000E+00
 0.00000E+00
 0.00000E+00
 0.00000E+00
 0.00000E+00
 0.00000E+00
 1.94012E-01
 1.94012E-01
 1.94012E-01
 1.94012E-01
 1.94012E-01
 1.94012E-01
 1.94012E-01
 1.94012E-01
 1.94012E-01
 1.94012E-01
 1.94012E-01
 1.94012E-01
 1.94012E-01
 1.94012E-01
 1.94012E-01
 1.94012E-01
 1.94012E-01
 1.94012E-01
 1.94012E-01
 1.94012E-01
 1.94012E-01
 1.94012E-01
 1.94012E-01
 1.94012E-01
 1.94012E-01
 1.94012E-01
 1.94012E-01
 1.94012E-01
 1.94012E-01
 1.94012E-01
 1.94012E-01
 1.94012E-01
 1.94012E-01
 1.94012E-01
 1.94012E-01
 1.94012E-01
 3.88024E-01
 3.88024E-01
 3.88024E-01
 3.88024E-01
 3.88024E-01
 3.88024E-01
 3.88024E-01
 3.88024E-01
 3.88024E-01
 3.88024E-01
 3.88024E-01
 3.88024E-01
 3.88024E-01
 3.88024E-01
 3.88024E-01
 3.88024E-01
 3.88024E-01
 3.88024E-01
 3.88024E-01
 3.88024E-01
 3.88024E-01
 3.88024E-01
 3.88024E-01
 3.88024E-01
 3.88024E-01
 3.88024E-01
 3.88024E-01
 3.88024E-01
 3.88024E-01
 3.88024E-01
 3.88024E-01
 3.88024E-01
 3.88024E-01
 3.88024E-01
 3.88024E-01
 3.88024E-01
 5.82035E-01
 5.82035E-01
 5.82035E-01
 5.82035E-01
 5.82035E-01
 5.82035E-01
 5.82035E-01
 5.82035E-01
 5.82035E-01
 5.82035E-01
 5.82035E-01
 5.82035E-01
 5.82035E-01
 5.82035E-01
 5.82035E-01
 5.82035E-01
 5.82035E-01
 5.82035E-01
 5.82035E-01
 5.82035E-01
 5.82035E-01
 5.82035E-01
 5.82035E-01
 5.82035E-01
 5.82035E-01
 5.82035E-01
 5.82035E-01
 5.82035E-01
 5.82035E-01
 5.82035E-01
 5.82035E-01
 5.82035E-01
 5.82035E-01
 5.82035E-01
 5.82035E-01
 5.82035E-01
 7.76047E-01
 7.76047E-01
 7.76047E-01
 7.76047E-01
 7.76047E-01
 7.76047E-01
 7.76047E-01
 7.76047E-01
 7.76047E-01
 7.76047E-01
 7.76047E-01
 7.76047E-01
 7.76047E-01
 7.76047E-01
 7.76047E-01
 7.76047E-01
 7.76047E-01
 7.76047E-01
 7.76047E-01
 7.76047E-01
 7.76047E-01
 7.76047E-01
 7.76047E-01
 7.76047E-01
 7.76047E-01
 7.76047E-01
 7.76047E-01
 7.76047E-01
 7.76047E-01
 7.76047E-01
 7.76047E-01
 7.76047E-01
 7.76047E-01
 7.76047E-01
 7.76047E-01
 7.76047E-01
 9.70059E-01
 9.70059E-01
 9.70059E-01
 9.70059E-01
 9.70059E-01
 9.70059E-01
 9.70059E-01
 9.70059E-01
 9.70059E-01
 9.70059E-01
 9.70059E-01
 9.70059E-01
 9.70059E-01
 9.70059E-01
 9.70059E-01
 9.70059E-01
 9.70059E-01
 9.70059E-01
 9.70059E-01
 9.70059E-01
 9.70059E-01
 9.70059E-01
 9.70059E-01
 9.70059E-01
 9.70059E-01
 9.70059E-01
 9.70059E-01
 9.70059E-01
 9.70059E-01
 9.70059E-01
 9.70059E-01
 9.70059E-01
 9.70059E-01
 9.70059E-01
 9.70059E-01
 9.70059E-01
 SCALARS measuredDisp14 float  1                   
LOOKUP_TABLE default
 3.00998E-01
 3.00998E-01
 3.00998E-01
 3.00998E-01
 3.00998E-01
 3.00998E-01
 3.00998E-01
 3.00998E-01
 3.00998E-01
 3.00998E-01
 3.00998E-01
 3.00998E-01
 3.00998E-01
 3.00998E-01
 3.00998E-01
 3.00998E-01
 3.00998E-01
 3.00998E-01
 3.00998E-01
 3.00998E-01
 3.00998E-01
 3.00998E-01
 3.00998E-01
 3.00998E-01
 3.00998E-01
 3.00998E-01
 3.00998E-01
 3.00998E-01
 3.00998E-01
 3.00998E-01
 3.00998E-01
 3.00998E-01
 3.00998E-01
 3.00998E-01
 3.00998E-01
 3.00998E-01
 3.00998E-01
 3.00998E-01
 3.00998E-01
 3.00998E-01
 3.00998E-01
 3.00998E-01
 3.00998E-01
 3.00998E-01
 3.00998E-01
 3.00998E-01
 3.00998E-01
 3.00998E-01
 3.00998E-01
 3.00998E-01
 3.00998E-01
 3.00998E-01
 3.00998E-01
 3.00998E-01
 3.00998E-01
 3.00998E-01
 3.00998E-01
 3.00998E-01
 3.00998E-01
 3.00998E-01
 3.00998E-01
 3.00998E-01
 3.00998E-01
 3.00998E-01
 3.00998E-01
 3.00998E-01
 3.00998E-01
 3.00998E-01
 3.00998E-01
 3.00998E-01
 3.00998E-01
 3.00998E-01
 3.00998E-01
 3.00998E-01
 3.00998E-01
 3.00998E-01
 3.00998E-01
 3.00998E-01
 3.00998E-01
 3.00998E-01
 3.00998E-01
 3.00998E-01
 3.00998E-01
 3.00998E-01
 3.00998E-01
 3.00998E-01
 3.00998E-01
 3.00998E-01
 3.00998E-01
 3.00998E-01
 3.00998E-01
 3.00998E-01
 3.00998E-01
 3.00998E-01
 3.00998E-01
 3.00998E-01
 3.00998E-01
 3.00998E-01
 3.00998E-01
 3.00998E-01
 3.00998E-01
 3.00998E-01
 3.00998E-01
 3.00998E-01
 3.00998E-01
 3.00998E-01
 3.00998E-01
 3.00998E-01
 3.00998E-01
 3.00998E-01
 3.00998E-01
 3.00998E-01
 3.00998E-01
 3.00998E-01
 3.00998E-01
 3.00998E-01
 3.00998E-01
 3.00998E-01
 3.00998E-01
 3.00998E-01
 3.00998E-01
 3.00998E-01
 3.00998E-01
 3.00998E-01
 3.00998E-01
 3.00998E-01
 3.00998E-01
 3.00998E-01
 3.00998E-01
 3.00998E-01
 3.00998E-01
 3.00998E-01
 3.00998E-01
 3.00998E-01
 3.00998E-01
 3.00998E-01
 3.00998E-01
 3.00998E-01
 3.00998E-01
 3.00998E-01
 3.00998E-01
 3.00998E-01
 3.00998E-01
 3.00998E-01
 3.00998E-01
 3.00998E-01
 3.00998E-01
 3.00998E-01
 3.00998E-01
 3.00998E-01
 3.00998E-01
 3.00998E-01
 3.00998E-01
 3.00998E-01
 3.00998E-01
 3.00998E-01
 3.00998E-01
 3.00998E-01
 3.00998E-01
 3.00998E-01
 3.00998E-01
 3.00998E-01
 3.00998E-01
 3.00998E-01
 3.00998E-01
 3.00998E-01
 3.00998E-01
 3.00998E-01
 3.00998E-01
 3.00998E-01
 3.00998E-01
 3.00998E-01
 3.00998E-01
 3.00998E-01
 3.00998E-01
 3.00998E-01
 3.00998E-01
 3.00998E-01
 3.00998E-01
 3.00998E-01
 3.00998E-01
 3.00998E-01
 3.00998E-01
 3.00998E-01
 3.00998E-01
 3.00998E-01
 3.00998E-01
 3.00998E-01
 3.00998E-01
 3.00998E-01
 3.00998E-01
 3.00998E-01
 3.00998E-01
 3.00998E-01
 3.00998E-01
 3.00998E-01
 3.00998E-01
 3.00998E-01
 3.00998E-01
 3.00998E-01
 3.00998E-01
 3.00998E-01
 3.00998E-01
 3.00998E-01
 3.00998E-01
 3.00998E-01
 3.00998E-01
 3.00998E-01
 3.00998E-01
 3.00998E-01
 3.00998E-01
 3.00998E-01
 3.00998E-01
 3.00998E-01
 3.00998E-01
 3.00998E-01
 SCALARS predictedDisp11 float  1                  
LOOKUP_TABLE default
 0.00000E+00
 1.04937E-01
 2.09912E-01
 3.14897E-01
 4.19920E-01
 5.25029E-01
 1.97578E-05
 1.04909E-01
 2.09873E-01
 3.14862E-01
 4.19780E-01
 5.24883E-01
-1.20792E-05
 1.04947E-01
 2.09860E-01
 3.14787E-01
 4.19716E-01
 5.24609E-01
 3.96774E-05
 1.04975E-01
 2.09876E-01
 3.14755E-01
 4.19588E-01
 5.24539E-01
-3.07724E-05
 1.05058E-01
 2.09898E-01
 3.14710E-01
 4.19570E-01
 5.24504E-01
 0.00000E+00
 1.05132E-01
 2.10003E-01
 3.14755E-01
 4.19551E-01
 5.24619E-01
 5.73683E-05
 1.04968E-01
 2.09915E-01
 3.14870E-01
 4.19640E-01
 5.24674E-01
 4.98581E-05
 1.04975E-01
 2.09850E-01
 3.14745E-01
 4.19574E-01
 5.24472E-01
 1.18144E-04
 1.05006E-01
 2.09864E-01
 3.14729E-01
 4.19479E-01
 5.24376E-01
 2.01034E-04
 1.05131E-01
 2.09896E-01
 3.14662E-01
 4.19422E-01
 5.24257E-01
 3.27456E-04
 1.05246E-01
 2.09941E-01
 3.14617E-01
 4.19322E-01
 5.24272E-01
 3.61300E-04
 1.05360E-01
 2.10005E-01
 3.14648E-01
 4.19339E-01
 5.24307E-01
 5.06964E-04
 1.05171E-01
 2.09918E-01
 3.14710E-01
 4.18956E-01
 5.23064E-01
 4.35611E-04
 1.05134E-01
 2.09826E-01
 3.14543E-01
 4.18863E-01
 5.23111E-01
 5.87292E-04
 1.05262E-01
 2.09855E-01
 3.14530E-01
 4.18947E-01
 5.23388E-01
 9.82315E-04
 1.05531E-01
 2.09936E-01
 3.14498E-01
 4.18858E-01
 5.23308E-01
 1.61576E-03
 1.05807E-01
 2.10003E-01
 3.14366E-01
 4.18626E-01
 5.23136E-01
 1.77398E-03
 1.05931E-01
 2.10006E-01
 3.14370E-01
 4.18670E-01
 5.22955E-01
 1.47150E-03
 1.05352E-01
 2.09916E-01
 3.14588E-01
 4.18211E-01
 5.19802E-01
 1.41638E-03
 1.05332E-01
 2.09722E-01
 3.14373E-01
 4.18082E-01
 5.21039E-01
 1.74060E-03
 1.05510E-01
 2.09810E-01
 3.14579E-01
 4.18437E-01
 5.21647E-01
 2.47394E-03
 1.05793E-01
 2.09790E-01
 3.14334E-01
 4.18310E-01
 5.21730E-01
 3.41062E-03
 1.06396E-01
 2.09883E-01
 3.14129E-01
 4.18042E-01
 5.20990E-01
 4.71693E-03
 1.06213E-01
 2.09772E-01
 3.14159E-01
 4.17821E-01
 5.20619E-01
 1.13582E-03
 1.05240E-01
 2.09321E-01
 3.14032E-01
 4.18271E-01
 5.18737E-01
 2.58841E-04
 1.04887E-01
 2.09933E-01
 3.14819E-01
 4.18719E-01
 5.19724E-01
 2.75862E-03
 1.05217E-01
 2.09334E-01
 3.13950E-01
 4.19087E-01
 5.22332E-01
 1.58671E-03
 1.04838E-01
 2.09852E-01
 3.14670E-01
 4.18768E-01
 5.20966E-01
 4.13939E-03
 1.04819E-01
 2.09020E-01
 3.13956E-01
 4.18819E-01
 5.22925E-01
 4.25586E-03
 1.04994E-01
 2.09552E-01
 3.14386E-01
 4.18946E-01
 5.20871E-01
-4.59004E-03
 1.04637E-01
 2.11499E-01
 3.10603E-01
 4.23330E-01
 5.35095E-01
-3.81813E-03
 1.04020E-01
 2.11713E-01
 3.09841E-01
 4.22542E-01
 5.40106E-01
-6.14193E-03
 1.03969E-01
 2.12153E-01
 3.10170E-01
 4.19832E-01
 5.31644E-01
-8.20502E-03
 1.02505E-01
 2.11856E-01
 3.10428E-01
 4.20781E-01
 5.32445E-01
-1.88537E-02
 9.87089E-02
 2.12090E-01
 3.12769E-01
 4.23233E-01
 5.31338E-01
-1.48136E-02
 9.70832E-02
 2.11632E-01
 3.14130E-01
 4.23798E-01
 5.33462E-01
 SCALARS predictedDisp12 float  1                  
LOOKUP_TABLE default
 0.00000E+00
 2.10467E-05
-1.05613E-05
 4.91824E-05
-2.43487E-05
-4.11643E-06
 1.04938E-01
 1.04908E-01
 1.04946E-01
 1.04966E-01
 1.05040E-01
 1.05096E-01
 2.09903E-01
 2.09866E-01
 2.09844E-01
 2.09851E-01
 2.09852E-01
 2.09936E-01
 3.14888E-01
 3.14847E-01
 3.14766E-01
 3.14715E-01
 3.14650E-01
 3.14662E-01
 4.19922E-01
 4.19777E-01
 4.19696E-01
 4.19550E-01
 4.19501E-01
 4.19452E-01
 5.25061E-01
 5.24903E-01
 5.24611E-01
 5.24506E-01
 5.24438E-01
 5.24515E-01
 7.65373E-05
 6.59489E-05
 1.38036E-04
 2.22444E-04
 3.47632E-04
 3.68497E-04
 1.04983E-01
 1.04991E-01
 1.05018E-01
 1.05139E-01
 1.05238E-01
 1.05336E-01
 2.09922E-01
 2.09854E-01
 2.09864E-01
 2.09882E-01
 2.09909E-01
 2.09947E-01
 3.14869E-01
 3.14744E-01
 3.14716E-01
 3.14636E-01
 3.14565E-01
 3.14570E-01
 4.19655E-01
 4.19576E-01
 4.19472E-01
 4.19391E-01
 4.19267E-01
 4.19249E-01
 5.24713E-01
 5.24500E-01
 5.24383E-01
 5.24236E-01
 5.24215E-01
 5.24220E-01
 5.64067E-04
 4.95883E-04
 6.52126E-04
 1.05057E-03
 1.66939E-03
 1.80177E-03
 1.05226E-01
 1.05192E-01
 1.05318E-01
 1.05579E-01
 1.05835E-01
 1.05935E-01
 2.09960E-01
 2.09870E-01
 2.09893E-01
 2.09961E-01
 2.10001E-01
 2.09983E-01
 3.14747E-01
 3.14570E-01
 3.14554E-01
 3.14505E-01
 3.14349E-01
 3.14320E-01
 4.18995E-01
 4.18895E-01
 4.18965E-01
 4.18864E-01
 4.18604E-01
 4.18615E-01
 5.23126E-01
 5.23152E-01
 5.23422E-01
 5.23318E-01
 5.23117E-01
 5.22896E-01
 1.57279E-03
 1.53703E-03
 1.87272E-03
 2.61785E-03
 3.51875E-03
 4.78539E-03
 1.05457E-01
 1.05443E-01
 1.05628E-01
 1.05899E-01
 1.06473E-01
 1.06258E-01
 2.10015E-01
 2.09824E-01
 2.09905E-01
 2.09869E-01
 2.09931E-01
 2.09786E-01
 3.14682E-01
 3.14464E-01
 3.14657E-01
 3.14400E-01
 3.14160E-01
 3.14162E-01
 4.18323E-01
 4.18161E-01
 4.18518E-01
 4.18376E-01
 4.18079E-01
 4.17815E-01
 5.19907E-01
 5.21128E-01
 5.21727E-01
 5.21809E-01
 5.21036E-01
 5.20617E-01
 1.26658E-03
 4.05862E-04
 2.95468E-03
 1.79190E-03
 4.30629E-03
 4.30780E-03
 1.05370E-01
 1.05038E-01
 1.05367E-01
 1.04994E-01
 1.04932E-01
 1.05059E-01
 2.09491E-01
 2.10093E-01
 2.09488E-01
 2.09991E-01
 2.09120E-01
 2.09635E-01
 3.14239E-01
 3.15003E-01
 3.14119E-01
 3.14810E-01
 3.14063E-01
 3.14434E-01
 4.18509E-01
 4.18941E-01
 4.19271E-01
 4.18924E-01
 4.18932E-01
 4.18994E-01
 5.19010E-01
 5.19913E-01
 5.22523E-01
 5.21147E-01
 5.23056E-01
 5.20938E-01
-4.48630E-03
-3.70599E-03
-6.04254E-03
-8.13066E-03
-1.87640E-02
-1.47789E-02
 1.04745E-01
 1.04144E-01
 1.04062E-01
 1.02531E-01
 9.88108E-02
 9.71918E-02
 2.11632E-01
 2.11897E-01
 2.12350E-01
 2.12049E-01
 2.12318E-01
 2.11857E-01
 3.10979E-01
 3.10201E-01
 3.10458E-01
 3.10649E-01
 3.12991E-01
 3.14346E-01
 4.23981E-01
 4.23057E-01
 4.20215E-01
 4.21030E-01
 4.23360E-01
 4.23860E-01
 5.35733E-01
 5.40634E-01
 5.32062E-01
 5.32767E-01
 5.31498E-01
 5.33479E-01
 SCALARS predictedDisp13 float  1                  
LOOKUP_TABLE default
 0.00000E+00
 0.00000E+00
 0.00000E+00
 0.00000E+00
 0.00000E+00
 0.00000E+00
 0.00000E+00
 0.00000E+00
 0.00000E+00
 0.00000E+00
 0.00000E+00
 0.00000E+00
 0.00000E+00
 0.00000E+00
 0.00000E+00
 0.00000E+00
 0.00000E+00
 0.00000E+00
 0.00000E+00
 0.00000E+00
 0.00000E+00
 0.00000E+00
 0.00000E+00
 0.00000E+00
 0.00000E+00
 0.00000E+00
 0.00000E+00
 0.00000E+00
 0.00000E+00
 0.00000E+00
 0.00000E+00
 0.00000E+00
 0.00000E+00
 0.00000E+00
 0.00000E+00
 0.00000E+00
 1.93621E-01
 1.93856E-01
 1.93922E-01
 1.93779E-01
 1.93271E-01
 1.92672E-01
 1.93876E-01
 1.94045E-01
 1.94207E-01
 1.94046E-01
 1.93773E-01
 1.93102E-01
 1.93953E-01
 1.94216E-01
 1.94300E-01
 1.94217E-01
 1.93825E-01
 1.93386E-01
 1.93828E-01
 1.94074E-01
 1.94233E-01
 1.94111E-01
 1.93911E-01
 1.93421E-01
 1.93349E-01
 1.93831E-01
 1.93867E-01
 1.93933E-01
 1.93750E-01
 1.93397E-01
 1.92777E-01
 1.93186E-01
 1.93454E-01
 1.93468E-01
 1.93422E-01
 1.92901E-01
 3.87307E-01
 3.87598E-01
 3.87960E-01
 3.87653E-01
 3.86911E-01
 3.85724E-01
 3.87627E-01
 3.88033E-01
 3.88275E-01
 3.88095E-01
 3.87117E-01
 3.86483E-01
 3.88004E-01
 3.88288E-01
 3.88684E-01
 3.88333E-01
 3.87563E-01
 3.86763E-01
 3.87733E-01
 3.88144E-01
 3.88365E-01
 3.88218E-01
 3.87526E-01
 3.86995E-01
 3.87062E-01
 3.87234E-01
 3.87649E-01
 3.87568E-01
 3.87547E-01
 3.86910E-01
 3.85940E-01
 3.86665E-01
 3.86907E-01
 3.87090E-01
 3.86958E-01
 3.86525E-01
 5.82012E-01
 5.81697E-01
 5.82880E-01
 5.82619E-01
 5.81546E-01
 5.82171E-01
 5.81713E-01
 5.81357E-01
 5.82414E-01
 5.81804E-01
 5.80059E-01
 5.80576E-01
 5.82897E-01
 5.82415E-01
 5.83689E-01
 5.82763E-01
 5.80708E-01
 5.80937E-01
 5.82681E-01
 5.81860E-01
 5.82809E-01
 5.82691E-01
 5.80967E-01
 5.81594E-01
 5.81746E-01
 5.80236E-01
 5.80842E-01
 5.81025E-01
 5.80594E-01
 5.81755E-01
 5.82522E-01
 5.80893E-01
 5.81178E-01
 5.81730E-01
 5.81816E-01
 5.83258E-01
 7.78481E-01
 7.75891E-01
 7.80569E-01
 7.81235E-01
 7.78934E-01
 7.88753E-01
 7.75875E-01
 7.73398E-01
 7.75595E-01
 7.75366E-01
 7.67931E-01
 7.76793E-01
 7.80482E-01
 7.75576E-01
 7.80899E-01
 7.79353E-01
 7.73175E-01
 7.78202E-01
 7.81149E-01
 7.75404E-01
 7.79425E-01
 7.78894E-01
 7.72911E-01
 7.78845E-01
 7.79137E-01
 7.68182E-01
 7.73363E-01
 7.72956E-01
 7.72246E-01
 7.78189E-01
 7.89296E-01
 7.77318E-01
 7.78581E-01
 7.78989E-01
 7.78209E-01
 7.85752E-01
 9.81238E-01
 9.65920E-01
 9.88449E-01
 9.81409E-01
 9.81593E-01
 9.97855E-01
 9.65890E-01
 9.62933E-01
 9.64587E-01
 9.73516E-01
 9.38682E-01
 9.77081E-01
 9.88218E-01
 9.64543E-01
 9.91149E-01
 9.80794E-01
 9.69278E-01
 9.75652E-01
 9.80946E-01
 9.73563E-01
 9.80926E-01