# vtk DataFile Version 2.0
Output of NLACE
ASCII
DATASET UNSTRUCTURED_GRID
POINTS          216 FLOAT
 0.000000E+00  0.000000E+00  0.000000E+00
 2.000000E+00  0.000000E+00  0.000000E+00
 4.000000E+00  0.000000E+00  0.000000E+00
 6.000000E+00  0.000000E+00  0.000000E+00
 8.000000E+00  0.000000E+00  0.000000E+00
 1.000000E+01  0.000000E+00  0.000000E+00
 0.000000E+00  2.000000E+00  0.000000E+00
 2.000000E+00  2.000000E+00  0.000000E+00
 4.000000E+00  2.000000E+00  0.000000E+00
 6.000000E+00  2.000000E+00  0.000000E+00
 8.000000E+00  2.000000E+00  0.000000E+00
 1.000000E+01  2.000000E+00  0.000000E+00
 0.000000E+00  4.000000E+00  0.000000E+00
 2.000000E+00  4.000000E+00  0.000000E+00
 4.000000E+00  4.000000E+00  0.000000E+00
 6.000000E+00  4.000000E+00  0.000000E+00
 8.000000E+00  4.000000E+00  0.000000E+00
 1.000000E+01  4.000000E+00  0.000000E+00
 0.000000E+00  6.000000E+00  0.000000E+00
 2.000000E+00  6.000000E+00  0.000000E+00
 4.000000E+00  6.000000E+00  0.000000E+00
 6.000000E+00  6.000000E+00  0.000000E+00
 8.000000E+00  6.000000E+00  0.000000E+00
 1.000000E+01  6.000000E+00  0.000000E+00
 0.000000E+00  8.000000E+00  0.000000E+00
 2.000000E+00  8.000000E+00  0.000000E+00
 4.000000E+00  8.000000E+00  0.000000E+00
 6.000000E+00  8.000000E+00  0.000000E+00
 8.000000E+00  8.000000E+00  0.000000E+00
 1.000000E+01  8.000000E+00  0.000000E+00
 0.000000E+00  1.000000E+01  0.000000E+00
 2.000000E+00  1.000000E+01  0.000000E+00
 4.000000E+00  1.000000E+01  0.000000E+00
 6.000000E+00  1.000000E+01  0.000000E+00
 8.000000E+00  1.000000E+01  0.000000E+00
 1.000000E+01  1.000000E+01  0.000000E+00
 0.000000E+00  0.000000E+00 -2.000000E+00
 2.000000E+00  0.000000E+00 -2.000000E+00
 4.000000E+00  0.000000E+00 -2.000000E+00
 6.000000E+00  0.000000E+00 -2.000000E+00
 8.000000E+00  0.000000E+00 -2.000000E+00
 1.000000E+01  0.000000E+00 -2.000000E+00
 0.000000E+00  2.000000E+00 -2.000000E+00
 2.000000E+00  2.000000E+00 -2.000000E+00
 4.000000E+00  2.000000E+00 -2.000000E+00
 6.000000E+00  2.000000E+00 -2.000000E+00
 8.000000E+00  2.000000E+00 -2.000000E+00
 1.000000E+01  2.000000E+00 -2.000000E+00
 0.000000E+00  4.000000E+00 -2.000000E+00
 2.000000E+00  4.000000E+00 -2.000000E+00
 4.000000E+00  4.000000E+00 -2.000000E+00
 6.000000E+00  4.000000E+00 -2.000000E+00
 8.000000E+00  4.000000E+00 -2.000000E+00
 1.000000E+01  4.000000E+00 -2.000000E+00
 0.000000E+00  6.000000E+00 -2.000000E+00
 2.000000E+00  6.000000E+00 -2.000000E+00
 4.000000E+00  6.000000E+00 -2.000000E+00
 6.000000E+00  6.000000E+00 -2.000000E+00
 8.000000E+00  6.000000E+00 -2.000000E+00
 1.000000E+01  6.000000E+00 -2.000000E+00
 0.000000E+00  8.000000E+00 -2.000000E+00
 2.000000E+00  8.000000E+00 -2.000000E+00
 4.000000E+00  8.000000E+00 -2.000000E+00
 6.000000E+00  8.000000E+00 -2.000000E+00
 8.000000E+00  8.000000E+00 -2.000000E+00
 1.000000E+01  8.000000E+00 -2.000000E+00
 0.000000E+00  1.000000E+01 -2.000000E+00
 2.000000E+00  1.000000E+01 -2.000000E+00
 4.000000E+00  1.000000E+01 -2.000000E+00
 6.000000E+00  1.000000E+01 -2.000000E+00
 8.000000E+00  1.000000E+01 -2.000000E+00
 1.000000E+01  1.000000E+01 -2.000000E+00
 0.000000E+00  0.000000E+00 -4.000000E+00
 2.000000E+00  0.000000E+00 -4.000000E+00
 4.000000E+00  0.000000E+00 -4.000000E+00
 6.000000E+00  0.000000E+00 -4.000000E+00
 8.000000E+00  0.000000E+00 -4.000000E+00
 1.000000E+01  0.000000E+00 -4.000000E+00
 0.000000E+00  2.000000E+00 -4.000000E+00
 2.000000E+00  2.000000E+00 -4.000000E+00
 4.000000E+00  2.000000E+00 -4.000000E+00
 6.000000E+00  2.000000E+00 -4.000000E+00
 8.000000E+00  2.000000E+00 -4.000000E+00
 1.000000E+01  2.000000E+00 -4.000000E+00
 0.000000E+00  4.000000E+00 -4.000000E+00
 2.000000E+00  4.000000E+00 -4.000000E+00
 4.000000E+00  4.000000E+00 -4.000000E+00
 6.000000E+00  4.000000E+00 -4.000000E+00
 8.000000E+00  4.000000E+00 -4.000000E+00
 1.000000E+01  4.000000E+00 -4.000000E+00
 0.000000E+00  6.000000E+00 -4.000000E+00
 2.000000E+00  6.000000E+00 -4.000000E+00
 4.000000E+00  6.000000E+00 -4.000000E+00
 6.000000E+00  6.000000E+00 -4.000000E+00
 8.000000E+00  6.000000E+00 -4.000000E+00
 1.000000E+01  6.000000E+00 -4.000000E+00
 0.000000E+00  8.000000E+00 -4.000000E+00
 2.000000E+00  8.000000E+00 -4.000000E+00
 4.000000E+00  8.000000E+00 -4.000000E+00
 6.000000E+00  8.000000E+00 -4.000000E+00
 8.000000E+00  8.000000E+00 -4.000000E+00
 1.000000E+01  8.000000E+00 -4.000000E+00
 0.000000E+00  1.000000E+01 -4.000000E+00
 2.000000E+00  1.000000E+01 -4.000000E+00
 4.000000E+00  1.000000E+01 -4.000000E+00
 6.000000E+00  1.000000E+01 -4.000000E+00
 8.000000E+00  1.000000E+01 -4.000000E+00
 1.000000E+01  1.000000E+01 -4.000000E+00
 0.000000E+00  0.000000E+00 -6.000000E+00
 2.000000E+00  0.000000E+00 -6.000000E+00
 4.000000E+00  0.000000E+00 -6.000000E+00
 6.000000E+00  0.000000E+00 -6.000000E+00
 8.000000E+00  0.000000E+00 -6.000000E+00
 1.000000E+01  0.000000E+00 -6.000000E+00
 0.000000E+00  2.000000E+00 -6.000000E+00
 2.000000E+00  2.000000E+00 -6.000000E+00
 4.000000E+00  2.000000E+00 -6.000000E+00
 6.000000E+00  2.000000E+00 -6.000000E+00
 8.000000E+00  2.000000E+00 -6.000000E+00
 1.000000E+01  2.000000E+00 -6.000000E+00
 0.000000E+00  4.000000E+00 -6.000000E+00
 2.000000E+00  4.000000E+00 -6.000000E+00
 4.000000E+00  4.000000E+00 -6.000000E+00
 6.000000E+00  4.000000E+00 -6.000000E+00
 8.000000E+00  4.000000E+00 -6.000000E+00
 1.000000E+01  4.000000E+00 -6.000000E+00
 0.000000E+00  6.000000E+00 -6.000000E+00
 2.000000E+00  6.000000E+00 -6.000000E+00
 4.000000E+00  6.000000E+00 -6.000000E+00
 6.000000E+00  6.000000E+00 -6.000000E+00
 8.000000E+00  6.000000E+00 -6.000000E+00
 1.000000E+01  6.000000E+00 -6.000000E+00
 0.000000E+00  8.000000E+00 -6.000000E+00
 2.000000E+00  8.000000E+00 -6.000000E+00
 4.000000E+00  8.000000E+00 -6.000000E+00
 6.000000E+00  8.000000E+00 -6.000000E+00
 8.000000E+00  8.000000E+00 -6.000000E+00
 1.000000E+01  8.000000E+00 -6.000000E+00
 0.000000E+00  1.000000E+01 -6.000000E+00
 2.000000E+00  1.000000E+01 -6.000000E+00
 4.000000E+00  1.000000E+01 -6.000000E+00
 6.000000E+00  1.000000E+01 -6.000000E+00
 8.000000E+00  1.000000E+01 -6.000000E+00
 1.000000E+01  1.000000E+01 -6.000000E+00
 0.000000E+00  0.000000E+00 -8.000000E+00
 2.000000E+00  0.000000E+00 -8.000000E+00
 4.000000E+00  0.000000E+00 -8.000000E+00
 6.000000E+00  0.000000E+00 -8.000000E+00
 8.000000E+00  0.000000E+00 -8.000000E+00
 1.000000E+01  0.000000E+00 -8.000000E+00
 0.000000E+00  2.000000E+00 -8.000000E+00
 2.000000E+00  2.000000E+00 -8.000000E+00
 4.000000E+00  2.000000E+00 -8.000000E+00
 6.000000E+00  2.000000E+00 -8.000000E+00
 8.000000E+00  2.000000E+00 -8.000000E+00
 1.000000E+01  2.000000E+00 -8.000000E+00
 0.000000E+00  4.000000E+00 -8.000000E+00
 2.000000E+00  4.000000E+00 -8.000000E+00
 4.000000E+00  4.000000E+00 -8.000000E+00
 6.000000E+00  4.000000E+00 -8.000000E+00
 8.000000E+00  4.000000E+00 -8.000000E+00
 1.000000E+01  4.000000E+00 -8.000000E+00
 0.000000E+00  6.000000E+00 -8.000000E+00
 2.000000E+00  6.000000E+00 -8.000000E+00
 4.000000E+00  6.000000E+00 -8.000000E+00
 6.000000E+00  6.000000E+00 -8.000000E+00
 8.000000E+00  6.000000E+00 -8.000000E+00
 1.000000E+01  6.000000E+00 -8.000000E+00
 0.000000E+00  8.000000E+00 -8.000000E+00
 2.000000E+00  8.000000E+00 -8.000000E+00
 4.000000E+00  8.000000E+00 -8.000000E+00
 6.000000E+00  8.000000E+00 -8.000000E+00
 8.000000E+00  8.000000E+00 -8.000000E+00
 1.000000E+01  8.000000E+00 -8.000000E+00
 0.000000E+00  1.000000E+01 -8.000000E+00
 2.000000E+00  1.000000E+01 -8.000000E+00
 4.000000E+00  1.000000E+01 -8.000000E+00
 6.000000E+00  1.000000E+01 -8.000000E+00
 8.000000E+00  1.000000E+01 -8.000000E+00
 1.000000E+01  1.000000E+01 -8.000000E+00
 0.000000E+00  0.000000E+00 -1.000000E+01
 2.000000E+00  0.000000E+00 -1.000000E+01
 4.000000E+00  0.000000E+00 -1.000000E+01
 6.000000E+00  0.000000E+00 -1.000000E+01
 8.000000E+00  0.000000E+00 -1.000000E+01
 1.000000E+01  0.000000E+00 -1.000000E+01
 0.000000E+00  2.000000E+00 -1.000000E+01
 2.000000E+00  2.000000E+00 -1.000000E+01
 4.000000E+00  2.000000E+00 -1.000000E+01
 6.000000E+00  2.000000E+00 -1.000000E+01
 8.000000E+00  2.000000E+00 -1.000000E+01
 1.000000E+01  2.000000E+00 -1.000000E+01
 0.000000E+00  4.000000E+00 -1.000000E+01
 2.000000E+00  4.000000E+00 -1.000000E+01
 4.000000E+00  4.000000E+00 -1.000000E+01
 6.000000E+00  4.000000E+00 -1.000000E+01
 8.000000E+00  4.000000E+00 -1.000000E+01
 1.000000E+01  4.000000E+00 -1.000000E+01
 0.000000E+00  6.000000E+00 -1.000000E+01
 2.000000E+00  6.000000E+00 -1.000000E+01
 4.000000E+00  6.000000E+00 -1.000000E+01
 6.000000E+00  6.000000E+00 -1.000000E+01
 8.000000E+00  6.000000E+00 -1.000000E+01
 1.000000E+01  6.000000E+00 -1.000000E+01
 0.000000E+00  8.000000E+00 -1.000000E+01
 2.000000E+00  8.000000E+00 -1.000000E+01
 4.000000E+00  8.000000E+00 -1.000000E+01
 6.000000E+00  8.000000E+00 -1.000000E+01
 8.000000E+00  8.000000E+00 -1.000000E+01
 1.000000E+01  8.000000E+00 -1.000000E+01
 0.000000E+00  1.000000E+01 -1.000000E+01
 2.000000E+00  1.000000E+01 -1.000000E+01
 4.000000E+00  1.000000E+01 -1.000000E+01
 6.000000E+00  1.000000E+01 -1.000000E+01
 8.000000E+00  1.000000E+01 -1.000000E+01
 1.000000E+01  1.000000E+01 -1.000000E+01
CELLS          625        3125
4    0   36   42   37
4    7   42   43   37
4    7   42   37    0
4    7    0    6   42
4    1    0    7   37
4    7   37   43   44
4    2   37   44   38
4    2   37    7   44
4    1   37    7    2
4    8    7   44    2
4    2   38   44   39
4    9   44   45   39
4    9   44   39    2
4    9    2    8   44
4    3    2    9   39
4    9   39   45   46
4    4   39   46   40
4    4   39    9   46
4    3   39    9    4
4   10    9   46    4
4    4   40   46   41
4   11   46   47   41
4   11   46   41    4
4   11    4   10   46
4    5    4   11   41
4   12   42   48   49
4    7   42   49   43
4    7   42   12   49
4    6   42   12    7
4   13   12   49    7
4    7   43   49   44
4   14   49   50   44
4   14   49   44    7
4   14    7   13   49
4    8    7   14   44
4   14   44   50   51
[...]
POINT_DATA          216
 SCALARS measuredDisp11 float  1                   
LOOKUP_TABLE default
 0.00000E+00
 1.04687E-01
 2.09374E-01
 3.14061E-01
 4.18748E-01
 5.23435E-01
 0.00000E+00
 1.04687E-01
 2.09374E-01
 3.14061E-01
 4.18748E-01
 5.23435E-01
 0.00000E+00
 1.04687E-01
 2.09374E-01
 3.14061E-01
 4.18748E-01
 5.23435E-01
 0.00000E+00
 1.04687E-01
 2.09374E-01
 3.14061E-01
 4.18748E-01
 5.23435E-01
 0.00000E+00
 1.04687E-01
 2.09374E-01
 3.14061E-01
 4.18748E-01
 5.23435E-01
 0.00000E+00
 1.04687E-01
 2.09374E-01
 3.14061E-01
 4.18748E-01
 5.23435E-01
 0.00000E+00
 1.04687E-01
 2.09374E-01
 3.14061E-01
 4.18748E-01
 5.23435E-01
 0.00000E+00
 1.04687E-01
 2.09374E-01
 3.14061E-01
 4.18748E-01
 5.23435E-01
 0.00000E+00
 1.04687E-01
 2.09374E-01
 3.14061E-01
 4.18748E-01
 5.23435E-01
 0.00000E+00
 1.04687E-01
 2.09374E-01
 3.14061E-01
 4.18748E-01
 5.23435E-01
 0.00000E+00
 1.04687E-01
 2.09374E-01
 3.14061E-01
 4.18748E-01
 5.23435E-01
 0.00000E+00
 1.04687E-01
 2.09374E-01
 3.14061E-01
 4.18748E-01
 5.23435E-01
 0.00000E+00
 1.04687E-01
 2.09374E-01
 3.14061E-01
 4.18748E-01
 5.23435E-01
 0.00000E+00
 1.04687E-01
 2.09374E-01
 3.14061E-01
 4.18748E-01
 5.23435E-01
 0.00000E+00
 1.04687E-01
 2.09374E-01
 3.14061E-01
 4.18748E-01
 5.23435E-01
 0.00000E+00
 1.04687E-01
 2.09374E-01
 3.14061E-01
 4.18748E-01
 5.23435E-01
 0.00000E+00
 1.04687E-01
 2.09374E-01
 3.14061E-01
 4.18748E-01
 5.23435E-01
 0.00000E+00
 1.04687E-01
 2.09374E-01
 3.14061E-01
 4.18748E-01
 5.23435E-01
 0.00000E+00
 1.04687E-01
 2.09374E-01
 3.14061E-01
 4.18748E-01
 5.23435E-01
 0.00000E+00
 1.04687E-01
 2.09374E-01
 3.14061E-01
 4.18748E-01
 5.23435E-01
 0.00000E+00
 1.04687E-01
 2.09374E-01
 3.14061E-01
 4.18748E-01
 5.23435E-01
 0.00000E+00
 1.04687E-01
 2.09374E-01
 3.14061E-01
 4.18748E-01
 5.23435E-01
 0.00000E+00
 1.04687E-01
 2.09374E-01
 3.14061E-01
 4.18748E-01
 5.23435E-01
 0.00000E+00
 1.04687E-01
 2.09374E-01
 3.14061E-01
 4.18748E-01
 5.23435E-01
 0.00000E+00
 1.04687E-01
 2.09374E-01
 3.14061E-01
 4.18748E-01
 5.23435E-01
 0.00000E+00
 1.04687E-01
 2.09374E-01
 3.14061E-01
 4.18748E-01
 5.23435E-01
 0.00000E+00
 1.04687E-01
 2.09374E-01
 3.14061E-01
 4.18748E-01
 5.23435E-01
 0.00000E+00
 1.04687E-01
 2.09374E-01
 3.14061E-01
 4.18748E-01
 5.23435E-01
 0.00000E+00
 1.04687E-01
 2.09374E-01
 3.14061E-01
 4.18748E-01
 5.23435E-01
 0.00000E+00
 1.04687E-01
 2.09374E-01
 3.14061E-01
 4.18748E-01
 5.23435E-01
 0.00000E+00
 1.04687E-01
 2.09374E-01
 3.14061E-01
 4.18748E-01
 5.23435E-01
 0.00000E+00
 1.04687E-01
 2.09374E-01
 3.14061E-01
 4.18748E-01
 5.23435E-01
 0.00000E+00
 1.04687E-01
 2.09374E-01
 3.14061E-01
 4.18748E-01
 5.23435E-01
 0.00000E+00
 1.04687E-01
 2.09374E-01
 3.14061E-01
 4.18748E-01
 5.23435E-01
 0.00000E+00
 1.04687E-01
 2.09374E-01
 3.14061E-01
 4.18748E-01
 5.23435E-01
 0.00000E+00
 1.04687E-01
 2.09374E-01
 3.14061E-01
 4.18748E-01
 5.23435E-01
 SCALARS measuredDisp12 float  1                   
LOOKUP_TABLE default
 0.00000E+00
 0.00000E+00
 0.00000E+00
 0.00000E+00
 0.00000E+00
 0.00000E+00
 1.04687E-01
 1.04687E-01
 1.04687E-01
 1.04687E-01
 1.04687E-01
 1.04687E-01
 2.09374E-01
 2.09374E-01
 2.09374E-01
 2.09374E-01
 2.09374E-01
 2.09374E-01
 3.14061E-01
 3.14061E-01
 3.14061E-01
 3.14061E-01
 3.14061E-01
 3.14061E-01
 4.18748E-01
 4.18748E-01
 4.18748E-01
 4.18748E-01
 4.18748E-01
 4.18748E-01
 5.23435E-01
 5.23435E-01
 5.23435E-01
 5.23435E-01
 5.23435E-01
 5.23435E-01
 0.00000E+00
 0.00000E+00
 0.00000E+00
 0.00000E+00
 0.00000E+00
 0.00000E+00
 1.04687E-01
 1.04687E-01
 1.04687E-01
 1.04687E-01
 1.04687E-01
 1.04687E-01
 2.09374E-01
 2.09374E-01
 2.09374E-01
 2.09374E-01
 2.09374E-01
 2.09374E-01
 3.14061E-01
 3.14061E-01
 3.14061E-01
 3.14061E-01
 3.14061E-01
 3.14061E-01
 4.18748E-01
 4.18748E-01
 4.18748E-01
 4.18748E-01
 4.18748E-01
 4.18748E-01
 5.23435E-01
 5.23435E-01
 5.23435E-01
 5.23435E-01
 5.23435E-01
 5.23435E-01
 0.00000E+00
 0.00000E+00
 0.00000E+00
 0.00000E+00
 0.00000E+00
 0.00000E+00
 1.04687E-01
 1.04687E-01
 1.04687E-01
 1.04687E-01
 1.04687E-01
 1.04687E-01
 2.09374E-01
 2.09374E-01
 2.09374E-01
 2.09374E-01
 2.09374E-01
 2.09374E-01
 3.14061E-01
 3.14061E-01
 3.14061E-01
 3.14061E-01
 3.14061E-01
 3.14061E-01
 4.18748E-01
 4.18748E-01
 4.18748E-01
 4.18748E-01
 4.18748E-01
 4.18748E-01
 5.23435E-01
 5.23435E-01
 5.23435E-01
 5.23435E-01
 5.23435E-01
 5.23435E-01
 0.00000E+00
 0.00000E+00
 0.00000E+00
 0.00000E+00
 0.00000E+00
 0.00000E+00
 1.04687E-01
 1.04687E-01
 1.04687E-01
 1.04687E-01
 1.04687E-01
 1.04687E-01
 2.09374E-01
 2.09374E-01
 2.09374E-01
 2.09374E-01
 2.09374E-01
 2.09374E-01
 3.14061E-01
 3.14061E-01
 3.14061E-01
 3.14061E-01
 3.14061E-01
 3.14061E-01
 4.18748E-01
 4.18748E-01
 4.18748E-01
 4.18748E-01
 4.18748E-01
 4.18748E-01
 5.23435E-01
 5.23435E-01
 5.23435E-01
 5.23435E-01
 5.23435E-01
 5.23435E-01
 0.00000E+00
 0.00000E+00
 0.00000E+00
 0.00000E+00
 0.00000E+00
 0.00000E+00
 1.04687E-01
 1.04687E-01
 1.04687E-01
 1.04687E-01
 1.04687E-01
 1.04687E-01
 2.09374E-01
 2.09374E-01
 2.09374E-01
 2.09374E-01
 2.09374E-01
 2.09374E-01
 3.14061E-01
 3.14061E-01
 3.14061E-01
 3.14061E-01
 3.14061E-01
 3.14061E-01
 4.18748E-01
 4.18748E-01
 4.18748E-01
 4.18748E-01
 4.18748E-01
 4.18748E-01
 5.23435E-01
 5.23435E-01
 5.23435E-01
 5.23435E-01
 5.23435E-01
 5.23435E-01
 0.00000E+00
 0.00000E+00
 0.00000E+00
 0.00000E+00
 0.00000E+00
 0.00000E+00
 1.04687E-01
 1.04687E-01
 1.04687E-01
 1.04687E-01
 1.04687E-01
 1.04687E-01
 2.09374E-01
 2.09374E-01
 2.09374E-01
 2.09374E-01
 2.09374E-01
 2.09374E-01
 3.14061E-01
 3.14061E-01
 3.14061E-01
 3.14061E-01
 3.14061E-01
 3.14061E-01
 4.18748E-01
 4.18748E-01
 4.18748E-01
 4.18748E-01
 4.18748E-01
 4.18748E-01
 5.23435E-01
 5.23435E-01
 5.23435E-01
 5.23435E-01
 5.23435E-01
 5.23435E-01
 SCALARS measuredDisp13 float  1                   
LOOKUP_TABLE default
 0.00000E+00
 0.00000E+00
 0.00000E+00
 0.00000E+00
 0.00000E+00
 0.00000E+00
 0.00000E+00
 0.00000E+00
 0.00000E+00
 0.00000E+00
 0.00000E+00
 0.00000E+00
 0.00000E+00
 0.00000E+00
 0.00000E+00
 0.00000E+00
 0.00000E+00
 0.00000E+00
 0.00000E+00
 0.00000E+00
 0.00000E+00
 0.00000E+00
 0.00000E+00
 0.00000E+00
 0.00000E+00
 0.00000E+00
 0.00000E+00
 0.00000E+00
 0.00000E+00
 0.00000E+00
 0.00000E+00
 0.00000E+00
 0.00000E+00
 0.00000E+00
 0.00000E+00
 0.00000E+00
 1.94012E-01
 1.94012E-01
 1.94012E-01
 1.94012E-01
 1.94012E-01
 1.94012E-01
 1.94012E-01
 1.94012E-01
 1.94012E-01
 1.94012E-01
 1.94012E-01
 1.94012E-01
 1.94012E-01
 1.94012E-01
 1.94012E-01
 1.94012E-01
 1.94012E-01
 1.94012E-01
 1.94012E-01
 1.94012E-01
 1.94012E-01
 1.94012E-01
 1.94012E-01
 1.94012E-01
 1.94012E-01
 1.94012E-01
 1.94012E-01
 1.94012E-01
 1.94012E-01
 1.94012E-01
 1.94012E-01
 1.94012E-01
 1.94012E-01
 1.94012E-01
 1.94012E-01
 1.94012E-01
 3.88024E-01
 3.88024E-01
 3.88024E-01
 3.88024E-01
 3.88024E-01
 3.88024E-01
 3.88024E-01
 3.88024E-01
 3.88024E-01
 3.88024E-01
 3.88024E-01
 3.88024E-01
 3.88024E-01
 3.88024E-01
 3.88024E-01
 3.88024E-01
 3.88024E-01
 3.88024E-01
 3.88024E-01
 3.88024E-01
 3.88024E-01
 3.88024E-01
 3.88024E-01
 3.88024E-01
 3.88024E-01
 3.88024E-01
 3.88024E-01
 3.88024E-01
 3.88024E-01
 3.88024E-01
 3.88024E-01
 3.88024E-01
 3.88024E-01
 3.88024E-01
 3.88024E-01
 3.88024E-01
 5.82035E-01
 5.82035E-01
 5.82035E-01
 5.82035E-01
 5.82035E-01
 5.82035E-01
 5.82035E-01
 5.82035E-01
 5.82035E-01
 5.82035E-01
 5.82035E-01
 5.82035E-01
 5.82035E-01
 5.82035E-01
 5.82035E-01
 5.82035E-01
 5.82035E-01
 5.82035E-01
 5.82035E-01
 5.82035E-01
 5.82035E-01
 5.82035E-01
 5.82035E-01
 5.82035E-01
 5.82035E-01
 5.82035E-01
 5.82035E-01
 5.82035E-01
 5.82035E-01
 5.82035E-01
 5.82035E-01
 5.82035E-01
 5.82035E-01
 5.82035E-01
 5.82035E-01
 5.82035E-01
 7.76047E-01
 7.76047E-01
 7.76047E-01
 7.76047E-01
 7.76047E-01
 7.76047E-01
 7.76047E-01
 7.76047E-01
 7.76047E-01
 7.76047E-01
 7.76047E-01
 7.76047E-01
 7.76047E-01
 7.76047E-01
 7.76047E-01
 7.76047E-01
 7.76047E-01
 7.76047E-01
 7.76047E-01
 7.76047E-01
 7.76047E-01
 7.76047E-01
 7.76047E-01
 7.76047E-01
 7.76047E-01
 7.76047E-01
 7.76047E-01
 7.76047E-01
 7.76047E-01
 7.76047E-01
 7.76047E-01
 7.76047E-01
 7.76047E-01
 7.76047E-01
 7.76047E-01
 7.76047E-01
 9.70059E-01
 9.70059E-01
 9.70059E-01
 9.70059E-01
 9.70059E-01
 9.70059E-01
 9.70059E-01
 9.70059E-01
 9.70059E-01
 9.70059E-01
 9.70059E-01
 9.70059E-01
 9.70059E-01
 9.70059E-01
 9.70059E-01
 9.70059E-01
 9.70059E-01
 9.70059E-01
 9.70059E-01
 9.70059E-01
 9.70059E-01
 9.70059E-01
 9.70059E-01
 9.70059E-01
 9.70059E-01
 9.70059E-01
 9.70059E-01
 9.70059E-01
 9.70059E-01
 9.70059E-01
 9.70059E-01
 9.70059E-01
 9.70059E-01
 9.70059E-01
 9.70059E-01
 9.70059E-01
 SCALARS measuredDisp14 float  1                   
LOOKUP_TABLE default
 3.00998E-01
 3.00998E-01
 3.00998E-01
 3.00998E-01
 3.00998E-01
 3.00998E-01
 3.00998E-01
 3.00998E-01
 3.00998E-01
 3.00998E-01
 3.00998E-01
 3.00998E-01
 3.00998E-01
 3.00998E-01
 3.00998E-01
 3.00998E-01
 3.00998E-01
 3.00998E-01
 3.00998E-01
 3.00998E-01
 3.00998E-01
 3.00998E-01
 3.00998E-01
 3.00998E-01
 3.00998E-01
 3.00998E-01
 3.00998E-01
 3.00998E-01
 3.00998E-01
 3.00998E-01
 3.00998E-01
 3.00998E-01
 3.00998E-01
 3.00998E-01
 3.00998E-01
 3.00998E-01
 3.00998E-01
 3.00998E-01
 3.00998E-01
 3.00998E-01
 3.00998E-01
 3.00998E-01
 3.00998E-01
 3.00998E-01
 3.00998E-01
 3.00998E-01
 3.00998E-01
 3.00998E-01
 3.00998E-01
 3.00998E-01
 3.00998E-01
 3.00998E-01
 3.00998E-01
 3.00998E-01
 3.00998E-01
 3.00998E-01
 3.00998E-01
 3.00998E-01
 3.00998E-01
 3.00998E-01
 3.00998E-01
 3.00998E-01
 3.00998E-01
 3.00998E-01
 3.00998E-01
 3.00998E-01
 3.00998E-01
 3.00998E-01
 3.00998E-01
 3.00998E-01
 3.00998E-01
 3.00998E-01
 3.00998E-01
 3.00998E-01
 3.00998E-01
 3.00998E-01
 3.00998E-01
 3.00998E-01
 3.00998E-01
 3.00998E-01
 3.00998E-01
 3.00998E-01
 3.00998E-01
 3.00998E-01
 3.00998E-01
 3.00998E-01
 3.00998E-01
 3.00998E-01
 3.00998E-01
 3.00998E-01
 3.00998E-01
 3.00998E-01
 3.00998E-01
 3.00998E-01
 3.00998E-01
 3.00998E-01
 3.00998E-01
 3.00998E-01
 3.00998E-01
 3.00998E-01
 3.00998E-01
 3.00998E-01
 3.00998E-01
 3.00998E-01
 3.00998E-01
 3.00998E-01
 3.00998E-01
 3.00998E-01
 3.00998E-01
 3.00998E-01
 3.00998E-01
 3.00998E-01
 3.00998E-01
 3.00998E-01
 3.00998E-01
 3.00998E-01
 3.00998E-01
 3.00998E-01
 3.00998E-01
 3.00998E-01
 3.00998E-01
 3.00998E-01
 3.00998E-01
 3.00998E-01
 3.00998E-01
 3.00998E-01
 3.00998E-01
 3.00998E-01
 3.00998E-01
 3.00998E-01
 3.00998E-01
 3.00998E-01
 3.00998E-01
 3.00998E-01
 3.00998E-01
 3.00998E-01
 3.00998E-01
 3.00998E-01
 3.00998E-01
 3.00998E-01
 3.00998E-01
 3.00998E-01
 3.00998E-01
 3.00998E-01
 3.00998E-01
 3.00998E-01
 3.00998E-01
 3.00998E-01
 3.00998E-01
 3.00998E-01
 3.00998E-01
 3.00998E-01
 3.00998E-01
 3.00998E-01
 3.00998E-01
 3.00998E-01
 3.00998E-01
 3.00998E-01
 3.00998E-01
 3.00998E-01
 3.00998E-01
 3.00998E-01
 3.00998E-01
 3.00998E-01
 3.00998E-01
 3.00998E-01
 3.00998E-01
 3.00998E-01
 3.00998E-01
 3.00998E-01
 3.00998E-01
 3.00998E-01
 3.00998E-01
 3.00998E-01
 3.00998E-01
 3.00998E-01
 3.00998E-01
 3.00998E-01
 3.00998E-01
 3.00998E-01
 3.00998E-01
 3.00998E-01
 3.00998E-01
 3.00998E-01
 3.00998E-01
 3.00998E-01
 3.00998E-01
 3.00998E-01
 3.00998E-01
 3.00998E-01
 3.00998E-01
 3.00998E-01
 3.00998E-01
 3.00998E-01
 3.00998E-01
 3.00998E-01
 3.00998E-01
 3.00998E-01
 3.00998E-01
 3.00998E-01
 3.00998E-01
 3.00998E-01
 3.00998E-01
 3.00998E-01
 3.00998E-01
 3.00998E-01
 3.00998E-01
 3.00998E-01
 3.00998E-01
 3.00998E-01
 3.00998E-01
 3.00998E-01
 3.00998E-01
 3.00998E-01
 3.00998E-01
 3.00998E-01
 SCALARS predictedDisp11 float  1                  
LOOKUP_TABLE default
 0.00000E+00
 1.04619E-01
 2.09312E-01
 3.14062E-01
 4.18829E-01
 5.23595E-01
-2.60471E-05
 1.04624E-01
 2.09333E-01
 3.14081E-01
 4.18840E-01
 5.23605E-01
-5.87595E-05
 1.04650E-01
 2.09365E-01
 3.14112E-01
 4.18865E-01
 5.23599E-01
-4.29756E-05
 1.04686E-01
 2.09418E-01
 3.14154E-01
 4.18880E-01
 5.23621E-01
-2.89390E-05
 1.04734E-01
 2.09460E-01
 3.14180E-01
 4.18903E-01
 5.23635E-01
 0.00000E+00
 1.04764E-01
 2.09493E-01
 3.14205E-01
 4.18905E-01
 5.23665E-01
-1.96997E-05
 1.04611E-01
 2.09314E-01
 3.14054E-01
 4.18798E-01
 5.23559E-01
-4.07552E-05
 1.04617E-01
 2.09314E-01
 3.14067E-01
 4.18824E-01
 5.23572E-01
-4.22126E-05
 1.04651E-01
 2.09364E-01
 3.14101E-01
 4.18839E-01
 5.23585E-01
-2.18014E-05
 1.04716E-01
 2.09423E-01
 3.14141E-01
 4.18858E-01
 5.23580E-01
 3.71703E-05
 1.04771E-01
 2.09471E-01
 3.14169E-01
 4.18854E-01
 5.23587E-01
 4.94720E-05
 1.04804E-01
 2.09506E-01
 3.14188E-01
 4.18868E-01
 5.23600E-01
-1.75306E-04
 1.04608E-01
 2.09323E-01
 3.14031E-01
 4.18715E-01
 5.23381E-01
-1.09543E-04
 1.04569E-01
 2.09303E-01
 3.14032E-01
 4.18752E-01
 5.23461E-01
 3.24945E-05
 1.04697E-01
 2.09345E-01
 3.14069E-01
 4.18782E-01
 5.23471E-01
 1.40924E-04
 1.04804E-01
 2.09439E-01
 3.14125E-01
 4.18771E-01
 5.23436E-01
 3.02289E-04
 1.04894E-01
 2.09493E-01
 3.14125E-01
 4.18712E-01
 5.23338E-01
 2.48614E-04
 1.04898E-01
 2.09516E-01
 3.14160E-01
 4.18729E-01
 5.23287E-01
-8.27114E-04
 1.04574E-01
 2.09419E-01
 3.13974E-01
 4.18572E-01
 5.23031E-01
-3.22818E-04
 1.04614E-01
 2.09312E-01
 3.14009E-01
 4.18690E-01
 5.23287E-01
 3.90557E-04
 1.04817E-01
 2.09349E-01
 3.14032E-01
 4.18715E-01
 5.23290E-01
 4.85418E-04
 1.04880E-01
 2.09430E-01
 3.14097E-01
 4.18698E-01
 5.23212E-01
 9.38979E-04
 1.05068E-01
 2.09457E-01
 3.14090E-01
 4.18569E-01
 5.22820E-01
 7.59613E-04
 1.04873E-01
 2.09420E-01
 3.14118E-01
 4.18528E-01
 5.22742E-01
-1.84364E-03
 1.05269E-01
 2.09379E-01
 3.13904E-01
 4.18445E-01
 5.22509E-01
 3.70507E-04
 1.04926E-01
 2.09437E-01
 3.14029E-01
 4.18626E-01
 5.23108E-01
 1.35296E-03
 1.04787E-01
 2.09175E-01
 3.14032E-01
 4.18793E-01
 5.23069E-01
 8.11603E-05
 1.04606E-01
 2.09376E-01
 3.14163E-01
 4.18732E-01
 5.23081E-01
 1.71498E-03
 1.04682E-01
 2.09156E-01
 3.13886E-01
 4.18659E-01
 5.23103E-01
-4.15558E-04
 1.04063E-01
 2.09276E-01
 3.14124E-01
 4.18810E-01
 5.22731E-01
 5.34495E-03
 1.06739E-01
 2.09077E-01
 3.14051E-01
 4.18176E-01
 5.23071E-01
 9.76156E-04
 1.03175E-01
 2.09809E-01
 3.14373E-01
 4.18588E-01
 5.25631E-01
-4.12932E-03
 1.03643E-01
 2.11697E-01
 3.14043E-01
 4.18636E-01
 5.24479E-01
-1.49926E-03
 1.05231E-01
 2.09767E-01
 3.12667E-01
 4.18914E-01
 5.24836E-01
-6.47827E-03
 1.03167E-01
 2.09901E-01
 3.12997E-01
 4.20041E-01
 5.25407E-01
-5.12449E-03
 1.03793E-01
 2.09858E-01
 3.13188E-01
 4.20259E-01
 5.25550E-01
 SCALARS predictedDisp12 float  1                  
LOOKUP_TABLE default
 0.00000E+00
-2.29666E-05
-6.76755E-05
-8.32782E-05
-1.08137E-04
-1.23034E-04
 1.04626E-01
 1.04629E-01
 1.04641E-01
 1.04646E-01
 1.04654E-01
 1.04640E-01
 2.09339E-01
 2.09343E-01
 2.09354E-01
 2.09378E-01
 2.09388E-01
 2.09385E-01
 3.14123E-01
 3.14108E-01
 3.14109E-01
 3.14123E-01
 3.14122E-01
 3.14125E-01
 4.18920E-01
 4.18885E-01
 4.18872E-01
 4.18856E-01
 4.18859E-01
 4.18845E-01
 5.23694E-01
 5.23657E-01
 5.23605E-01
 5.23596E-01
 5.23592E-01
 5.23611E-01
-2.92710E-05
-3.47890E-05
-3.80211E-05
-5.01919E-05
-4.70834E-05
-8.11828E-05
 1.04607E-01
 1.04620E-01
 1.04648E-01
 1.04678E-01
 1.04685E-01
 1.04672E-01
 2.09333E-01
 2.09317E-01
 2.09351E-01
 2.09380E-01
 2.09394E-01
 2.09393E-01
 3.14114E-01
 3.14089E-01
 3.14094E-01
 3.14105E-01
 3.14110E-01
 3.14108E-01
 4.18888E-01
 4.18869E-01
 4.18840E-01
 4.18833E-01
 4.18810E-01
 4.18814E-01
 5.23666E-01
 5.23625E-01
 5.23588E-01
 5.23553E-01
 5.23548E-01
 5.23550E-01
-2.14884E-04
-9.45212E-05
 9.62010E-05
 1.48344E-04
 1.89020E-04
 9.61470E-05
 1.04568E-01
 1.04571E-01
 1.04711E-01
 1.04774E-01
 1.04787E-01
 1.04746E-01
 2.09308E-01
 2.09289E-01
 2.09322E-01
 2.09385E-01
 2.09401E-01
 2.09394E-01
 3.14087E-01
 3.14036E-01
 3.14048E-01
 3.14078E-01
 3.14060E-01
 3.14084E-01
 4.18809E-01
 4.18787E-01
 4.18770E-01
 4.18734E-01
 4.18672E-01
 4.18682E-01
 5.23467E-01
 5.23512E-01
 5.23446E-01
 5.23395E-01
 5.23306E-01
 5.23255E-01
-9.59036E-04
-2.85534E-04
 5.86999E-04
 6.19536E-04
 6.75410E-04
 5.07599E-04
 1.04472E-01
 1.04595E-01
 1.04871E-01
 1.04852E-01
 1.04902E-01
 1.04725E-01
 2.09373E-01
 2.09247E-01
 2.09309E-01
 2.09335E-01
 2.09351E-01
 2.09303E-01
 3.14011E-01
 3.13989E-01
 3.13987E-01
 3.14034E-01
 3.14017E-01
 3.14031E-01
 4.18606E-01
 4.18713E-01
 4.18664E-01
 4.18640E-01
 4.18516E-01
 4.18476E-01
 5.22990E-01
 5.23291E-01
 5.23177E-01
 5.23121E-01
 5.22802E-01
 5.22698E-01
-2.18517E-03
 2.57977E-04
 1.67701E-03
 1.46484E-04
 1.11631E-03
-3.23714E-04
 1.05030E-01
 1.04859E-01
 1.04737E-01
 1.04520E-01
 1.04563E-01
 1.04137E-01
 2.09426E-01
 2.09419E-01
 2.09094E-01
 2.09345E-01
 2.09091E-01
 2.09141E-01
 3.14006E-01
 3.13969E-01
 3.13930E-01
 3.14112E-01
 3.13786E-01
 3.13900E-01
 4.18138E-01
 4.18469E-01
 4.18683E-01
 4.18642E-01
 4.18562E-01
 4.18658E-01
 5.22041E-01
 5.23011E-01
 5.22816E-01
 5.22910E-01
 5.23072E-01
 5.22707E-01
 5.34098E-03
 8.78126E-04
-4.81178E-03
-2.87557E-03
-5.06703E-03
-3.83166E-03
 1.06417E-01
 1.03131E-01
 1.03079E-01
 1.04547E-01
 1.03431E-01
 1.03860E-01
 2.08660E-01
 2.10004E-01
 2.11411E-01
 2.10041E-01
 2.09590E-01
 2.09459E-01
 3.14252E-01
 3.13950E-01
 3.13750E-01
 3.12427E-01
 3.12877E-01
 3.13332E-01
 4.17840E-01
 4.18045E-01
 4.18990E-01
 4.18846E-01
 4.19441E-01
 4.19665E-01
 5.22316E-01
 5.25957E-01
 5.24947E-01
 5.24886E-01
 5.24875E-01
 5.24576E-01
 SCALARS predictedDisp13 float  1                  
LOOKUP_TABLE default
 0.00000E+00
 0.00000E+00
 0.00000E+00
 0.00000E+00
 0.00000E+00
 0.00000E+00
 0.00000E+00
 0.00000E+00
 0.00000E+00
 0.00000E+00
 0.00000E+00
 0.00000E+00
 0.00000E+00
 0.00000E+00
 0.00000E+00
 0.00000E+00
 0.00000E+00
 0.00000E+00
 0.00000E+00
 0.00000E+00
 0.00000E+00
 0.00000E+00
 0.00000E+00
 0.00000E+00
 0.00000E+00
 0.00000E+00
 0.00000E+00
 0.00000E+00
 0.00000E+00
 0.00000E+00
 0.00000E+00
 0.00000E+00
 0.00000E+00
 0.00000E+00
 0.00000E+00
 0.00000E+00
 1.94016E-01
 1.93970E-01
 1.93974E-01
 1.93993E-01
 1.93944E-01
 1.93881E-01
 1.93972E-01
 1.93985E-01
 1.94031E-01
 1.94053E-01
 1.94029E-01
 1.93948E-01
 1.93994E-01
 1.94039E-01
 1.94076E-01
 1.94096E-01
 1.94044E-01
 1.93985E-01
 1.94021E-01
 1.94076E-01
 1.94103E-01
 1.94071E-01
 1.94021E-01
 1.93934E-01
 1.93942E-01
 1.94030E-01
 1.94035E-01
 1.94010E-01
 1.93946E-01
 1.93866E-01
 1.93854E-01
 1.93925E-01
 1.93958E-01
 1.93908E-01
 1.93857E-01
 1.93729E-01
 3.87932E-01
 3.87939E-01
 3.87969E-01
 3.88013E-01
 3.87955E-01
 3.87783E-01
 3.87931E-01
 3.87942E-01
 3.88018E-01
 3.88117E-01
 3.87992E-01
 3.87893E-01
 3.87985E-01
 3.88037E-01
 3.88154E-01
 3.88199E-01
 3.88092E-01
 3.87973E-01
 3.88084E-01
 3.88186E-01
 3.88223E-01
 3.88152E-01
 3.87980E-01
 3.87876E-01
 3.87962E-01
 3.87994E-01
 3.88071E-01
 3.87948E-01
 3.87882E-01
 3.87731E-01
 3.87695E-01
 3.87826E-01
 3.87901E-01
 3.87811E-01
 3.87698E-01
 3.87584E-01
 5.81218E-01
 5.81778E-01
 5.82198E-01
 5.82344E-01
 5.82328E-01
 5.82040E-01
 5.81721E-01
 5.81996E-01
 5.81931E-01
 5.82096E-01
 5.81887E-01
 5.81732E-01
 5.82068E-01
 5.81958E-01
 5.82151E-01
 5.82424E-01
 5.82163E-01
 5.82092E-01
 5.82412E-01
 5.82396E-01
 5.82486E-01
 5.82318E-01
 5.81883E-01
 5.81913E-01
 5.82411E-01
 5.81892E-01
 5.82088E-01
 5.81812E-01
 5.81590E-01
 5.81879E-01
 5.81929E-01
 5.81540E-01
 5.81996E-01
 5.81806E-01
 5.81774E-01
 5.82120E-01
 7.71123E-01
 7.76126E-01
 7.77854E-01
 7.77411E-01
 7.77971E-01
 7.76974E-01
 7.76196E-01
 7.76383E-01
 7.74430E-01
 7.76006E-01
 7.74680E-01
 7.75372E-01
 7.77115E-01
 7.74420E-01
 7.76063E-01
 7.77661E-01
 7.76444E-01
 7.77142E-01
 7.76821E-01
 7.77065E-01
 7.77646E-01
 7.76816E-01
 7.75348E-01
 7.76174E-01
 7.78629E-01
 7.74316E-01
 7.76220E-01
 7.75169E-01
 7.74848E-01
 7.76729E-01
 7.77019E-01
 7.74874E-01
 7.77501E-01
 7.76070E-01
 7.76255E-01
 7.77982E-01
 9.44024E-01
 9.72617E-01
 9.81293E-01
 9.71301E-01
 9.80466E-01
 9.69967E-01
 9.73453E-01
 9.76108E-01
 9.62281E-01
 9.72098E-01
 9.63720E-01
 9.68805E-01
 9.78621E-01
 9.62003E-01
 9.71453E-01
 9.75720E-01
 9.72408E-01
 9.73752E-01
 9.68546E-01
 9.79620E-01
 9.75116E-01