# vtk DataFile Version 2.0
Output of NLACE
ASCII
DATASET UNSTRUCTURED_GRID
POINTS         3120 FLOAT
 1.972100E-01 -9.337178E+00 -1.349336E+01
 1.773206E+00 -9.340790E+00 -1.349290E+01
 3.349202E+00 -9.344402E+00 -1.349243E+01
 4.925198E+00 -9.348014E+00 -1.349197E+01
 6.501194E+00 -9.351626E+00 -1.349151E+01
 8.077190E+00 -9.355238E+00 -1.349104E+01
 9.653186E+00 -9.358850E+00 -1.349058E+01
 1.122918E+01 -9.362462E+00 -1.349011E+01
 1.280518E+01 -9.366074E+00 -1.348965E+01
 1.438117E+01 -9.369686E+00 -1.348919E+01
 1.595717E+01 -9.373298E+00 -1.348872E+01
 1.753317E+01 -9.376910E+00 -1.348826E+01
 1.910916E+01 -9.380522E+00 -1.348779E+01
 2.068516E+01 -9.384134E+00 -1.348733E+01
 2.226115E+01 -9.387746E+00 -1.348687E+01
 2.383715E+01 -9.391358E+00 -1.348640E+01
 1.936540E-01 -1.091852E+01 -1.373697E+01
 1.769650E+00 -1.092213E+01 -1.373650E+01
 3.345646E+00 -1.092575E+01 -1.373604E+01
 4.921642E+00 -1.092936E+01 -1.373558E+01
 6.497638E+00 -1.093297E+01 -1.373511E+01
 8.073634E+00 -1.093658E+01 -1.373465E+01
 9.649630E+00 -1.094019E+01 -1.373418E+01
 1.122563E+01 -1.094381E+01 -1.373372E+01
 1.280162E+01 -1.094742E+01 -1.373325E+01
 1.437762E+01 -1.095103E+01 -1.373279E+01
 1.595361E+01 -1.095464E+01 -1.373233E+01
 1.752961E+01 -1.095825E+01 -1.373186E+01
 1.910561E+01 -1.096187E+01 -1.373140E+01
 2.068160E+01 -1.096548E+01 -1.373094E+01
 2.225760E+01 -1.096909E+01 -1.373047E+01
 2.383359E+01 -1.097270E+01 -1.373001E+01
 1.900980E-01 -1.249987E+01 -1.398057E+01
 1.766094E+00 -1.250348E+01 -1.398011E+01
 3.342090E+00 -1.250709E+01 -1.397964E+01
 4.918086E+00 -1.251070E+01 -1.397918E+01
 6.494082E+00 -1.251431E+01 -1.397871E+01
 8.070078E+00 -1.251793E+01 -1.397825E+01
 9.646074E+00 -1.252154E+01 -1.397779E+01
 1.122207E+01 -1.252515E+01 -1.397732E+01
 1.279807E+01 -1.252876E+01 -1.397686E+01
 1.437406E+01 -1.253237E+01 -1.397640E+01
 1.595006E+01 -1.253599E+01 -1.397593E+01
 1.752605E+01 -1.253960E+01 -1.397547E+01
 1.910205E+01 -1.254321E+01 -1.397500E+01
 2.067805E+01 -1.254682E+01 -1.397454E+01
 2.225404E+01 -1.255043E+01 -1.397407E+01
 2.383004E+01 -1.255405E+01 -1.397361E+01
 1.865420E-01 -1.408121E+01 -1.422417E+01
 1.762538E+00 -1.408482E+01 -1.422371E+01
 3.338534E+00 -1.408843E+01 -1.422325E+01
 4.914530E+00 -1.409205E+01 -1.422278E+01
 6.490526E+00 -1.409566E+01 -1.422232E+01
 8.066522E+00 -1.409927E+01 -1.422185E+01
 9.642518E+00 -1.410288E+01 -1.422139E+01
 1.121851E+01 -1.410649E+01 -1.422093E+01
 1.279451E+01 -1.411011E+01 -1.422046E+01
 1.437051E+01 -1.411372E+01 -1.422000E+01
 1.594650E+01 -1.411733E+01 -1.421953E+01
 1.752250E+01 -1.412094E+01 -1.421907E+01
 1.909849E+01 -1.412455E+01 -1.421861E+01
 2.067449E+01 -1.412817E+01 -1.421814E+01
 2.225049E+01 -1.413178E+01 -1.421768E+01
 2.382648E+01 -1.413539E+01 -1.421721E+01
 1.829860E-01 -1.566255E+01 -1.446778E+01
 1.758982E+00 -1.566617E+01 -1.446731E+01
 3.334978E+00 -1.566978E+01 -1.446685E+01
 4.910974E+00 -1.567339E+01 -1.446639E+01
 6.486970E+00 -1.567700E+01 -1.446592E+01
 8.062966E+00 -1.568061E+01 -1.446546E+01
 9.638962E+00 -1.568423E+01 -1.446499E+01
 1.121496E+01 -1.568784E+01 -1.446453E+01
 1.279095E+01 -1.569145E+01 -1.446407E+01
 1.436695E+01 -1.569506E+01 -1.446360E+01
 1.594295E+01 -1.569867E+01 -1.446314E+01
 1.751894E+01 -1.570229E+01 -1.446268E+01
 1.909494E+01 -1.570590E+01 -1.446221E+01
 2.067093E+01 -1.570951E+01 -1.446175E+01
 2.224693E+01 -1.571312E+01 -1.446128E+01
 2.382293E+01 -1.571673E+01 -1.446082E+01
 1.794300E-01 -1.724390E+01 -1.471138E+01
 1.755426E+00 -1.724751E+01 -1.471092E+01
 3.331422E+00 -1.725112E+01 -1.471045E+01
 4.907418E+00 -1.725473E+01 -1.470999E+01
 6.483414E+00 -1.725835E+01 -1.470953E+01
 8.059410E+00 -1.726196E+01 -1.470906E+01
 9.635406E+00 -1.726557E+01 -1.470860E+01
 1.121140E+01 -1.726918E+01 -1.470814E+01
 1.278740E+01 -1.727279E+01 -1.470767E+01
 1.436339E+01 -1.727641E+01 -1.470721E+01
 1.593939E+01 -1.728002E+01 -1.470674E+01
 1.751539E+01 -1.728363E+01 -1.470628E+01
 1.909138E+01 -1.728724E+01 -1.470581E+01
 2.066738E+01 -1.729085E+01 -1.470535E+01
 2.224337E+01 -1.729447E+01 -1.470489E+01
 2.381937E+01 -1.729808E+01 -1.470442E+01
 1.758740E-01 -1.882524E+01 -1.495499E+01
 1.751870E+00 -1.882885E+01 -1.495452E+01
 3.327866E+00 -1.883247E+01 -1.495406E+01
 4.903862E+00 -1.883608E+01 -1.495359E+01
 6.479858E+00 -1.883969E+01 -1.495313E+01
 8.055854E+00 -1.884330E+01 -1.495267E+01
 9.631850E+00 -1.884691E+01 -1.495220E+01
 1.120785E+01 -1.885053E+01 -1.495174E+01
 1.278384E+01 -1.885414E+01 -1.495127E+01
 1.435984E+01 -1.885775E+01 -1.495081E+01
 1.593583E+01 -1.886136E+01 -1.495035E+01
 1.751183E+01 -1.886497E+01 -1.494988E+01
 1.908783E+01 -1.886859E+01 -1.494942E+01
 2.066382E+01 -1.887220E+01 -1.494895E+01
 2.223982E+01 -1.887581E+01 -1.494849E+01
 2.381581E+01 -1.887942E+01 -1.494803E+01
 1.723180E-01 -2.040659E+01 -1.519859E+01
 1.748314E+00 -2.041020E+01 -1.519813E+01
 3.324310E+00 -2.041381E+01 -1.519766E+01
 4.900306E+00 -2.041742E+01 -1.519720E+01
 6.476302E+00 -2.042103E+01 -1.519673E+01
 8.052298E+00 -2.042465E+01 -1.519627E+01
 9.628294E+00 -2.042826E+01 -1.519581E+01
 1.120429E+01 -2.043187E+01 -1.519534E+01
 1.278029E+01 -2.043548E+01 -1.519488E+01
 1.435628E+01 -2.043909E+01 -1.519441E+01
 1.593228E+01 -2.044271E+01 -1.519395E+01
 1.750827E+01 -2.044632E+01 -1.519349E+01
 1.908427E+01 -2.044993E+01 -1.519302E+01
 2.066027E+01 -2.045354E+01 -1.519256E+01
 2.223626E+01 -2.045715E+01 -1.519209E+01
 2.381226E+01 -2.046077E+01 -1.519163E+01
 1.687620E-01 -2.198793E+01 -1.544219E+01
 1.744758E+00 -2.199154E+01 -1.544173E+01
 3.320754E+00 -2.199515E+01 -1.544127E+01
 4.896750E+00 -2.199877E+01 -1.544080E+01
 6.472746E+00 -2.200238E+01 -1.544034E+01
 8.048742E+00 -2.200599E+01 -1.543988E+01
 9.624738E+00 -2.200960E+01 -1.543941E+01
 1.120073E+01 -2.201321E+01 -1.543895E+01
 1.277673E+01 -2.201683E+01 -1.543848E+01
 1.435273E+01 -2.202044E+01 -1.543802E+01
 1.592872E+01 -2.202405E+01 -1.543755E+01
 1.750472E+01 -2.202766E+01 -1.543709E+01
 1.908071E+01 -2.203127E+01 -1.543663E+01
 2.065671E+01 -2.203489E+01 -1.543616E+01
 2.223271E+01 -2.203850E+01 -1.543570E+01
 2.380870E+01 -2.204211E+01 -1.543523E+01
 1.652060E-01 -2.356927E+01 -1.568580E+01
 1.741202E+00 -2.357289E+01 -1.568534E+01
 3.317198E+00 -2.357650E+01 -1.568487E+01
 4.893194E+00 -2.358011E+01 -1.568441E+01
 6.469190E+00 -2.358372E+01 -1.568394E+01
 8.045186E+00 -2.358733E+01 -1.568348E+01
 9.621182E+00 -2.359095E+01 -1.568301E+01
 1.119718E+01 -2.359456E+01 -1.568255E+01
 1.277317E+01 -2.359817E+01 -1.568209E+01
 1.434917E+01 -2.360178E+01 -1.568162E+01
 1.592517E+01 -2.360539E+01 -1.568116E+01
 1.750116E+01 -2.360901E+01 -1.568070E+01
 1.907716E+01 -2.361262E+01 -1.568023E+01
 2.065315E+01 -2.361623E+01 -1.567977E+01
 2.222915E+01 -2.361984E+01 -1.567930E+01
 2.380515E+01 -2.362345E+01 -1.567884E+01
 1.616500E-01 -2.515062E+01 -1.592940E+01
 1.737646E+00 -2.515423E+01 -1.592894E+01
 3.313642E+00 -2.515784E+01 -1.592847E+01
 4.889638E+00 -2.516145E+01 -1.592801E+01
 6.465634E+00 -2.516507E+01 -1.592755E+01
 8.041630E+00 -2.516868E+01 -1.592708E+01
 9.617626E+00 -2.517229E+01 -1.592662E+01
 1.119362E+01 -2.517590E+01 -1.592615E+01
 1.276962E+01 -2.517951E+01 -1.592569E+01
 1.434561E+01 -2.518313E+01 -1.592523E+01
 1.592161E+01 -2.518674E+01 -1.592476E+01
 1.749761E+01 -2.519035E+01 -1.592430E+01
 1.907360E+01 -2.519396E+01 -1.592383E+01
 2.064960E+01 -2.519757E+01 -1.592337E+01
 2.222559E+01 -2.520119E+01 -1.592291E+01
 2.380159E+01 -2.520480E+01 -1.592244E+01
 1.580940E-01 -2.673196E+01 -1.617301E+01
 1.734090E+00 -2.673557E+01 -1.617254E+01
 3.310086E+00 -2.673919E+01 -1.617208E+01
 4.886082E+00 -2.674280E+01 -1.617161E+01
 6.462078E+00 -2.674641E+01 -1.617115E+01
 8.038074E+00 -2.675002E+01 -1.617069E+01
 9.614070E+00 -2.675363E+01 -1.617022E+01
 1.119007E+01 -2.675725E+01 -1.616976E+01
 1.276606E+01 -2.676086E+01 -1.616929E+01
 1.434206E+01 -2.676447E+01 -1.616883E+01
 1.591805E+01 -2.676808E+01 -1.616837E+01
 1.749405E+01 -2.677169E+01 -1.616790E+01
 1.907005E+01 -2.677531E+01 -1.616744E+01
 2.064604E+01 -2.677892E+01 -1.616698E+01
 2.222204E+01 -2.678253E+01 -1.616651E+01
 2.379803E+01 -2.678614E+01 -1.616605E+01
 1.545380E-01 -2.831331E+01 -1.641661E+01
 1.730534E+00 -2.831692E+01 -1.641615E+01
 3.306530E+00 -2.832053E+01 -1.641568E+01
 4.882526E+00 -2.832414E+01 -1.641522E+01
 6.458522E+00 -2.832775E+01 -1.641475E+01
 8.034518E+00 -2.833137E+01 -1.641429E+01
 9.610514E+00 -2.833498E+01 -1.641383E+01
 1.118651E+01 -2.833859E+01 -1.641336E+01
 1.276251E+01 -2.834220E+01 -1.641290E+01
 1.433850E+01 -2.834581E+01 -1.641243E+01
 1.591450E+01 -2.834943E+01 -1.641197E+01
 1.749049E+01 -2.835304E+01 -1.641151E+01
 1.906649E+01 -2.835665E+01 -1.641104E+01
 2.064249E+01 -2.836026E+01 -1.641058E+01
 2.221848E+01 -2.836387E+01 -1.641011E+01
 2.379448E+01 -2.836749E+01 -1.640965E+01
 2.232970E-01 -9.597983E+00 -1.170574E+01
 1.799293E+00 -9.601119E+00 -1.170521E+01
 3.375289E+00 -9.604255E+00 -1.170468E+01
 4.951285E+00 -9.607391E+00 -1.170414E+01
 6.527281E+00 -9.610527E+00 -1.170361E+01
 8.103277E+00 -9.613663E+00 -1.170308E+01
 9.679273E+00 -9.616799E+00 -1.170255E+01
 1.125527E+01 -9.619935E+00 -1.170202E+01
 1.283127E+01 -9.623071E+00 -1.170148E+01
 1.440726E+01 -9.626207E+00 -1.170095E+01
 1.598326E+01 -9.629343E+00 -1.170042E+01
 1.755925E+01 -9.632479E+00 -1.169989E+01
 1.913525E+01 -9.635615E+00 -1.169936E+01
 2.071124E+01 -9.638751E+00 -1.169882E+01
 2.228724E+01 -9.641887E+00 -1.169829E+01
 2.386324E+01 -9.645023E+00 -1.169776E+01
 2.202130E-01 -1.118396E+01 -1.191705E+01
 1.796209E+00 -1.118710E+01 -1.191652E+01
 3.372205E+00 -1.119023E+01 -1.191599E+01
 4.948201E+00 -1.119337E+01 -1.191546E+01
 6.524197E+00 -1.119651E+01 -1.191492E+01
 8.100193E+00 -1.119964E+01 -1.191439E+01
 9.676189E+00 -1.120278E+01 -1.191386E+01
 1.125219E+01 -1.120591E+01 -1.191333E+01
 1.282818E+01 -1.120905E+01 -1.191280E+01
 1.440418E+01 -1.121219E+01 -1.191226E+01
 1.598017E+01 -1.121532E+01 -1.191173E+01
[...]
POINT_DATA         3120
 SCALARS predictedDisp11 float  1                  
LOOKUP_TABLE default
-1.60392E-01
-1.58894E-01
-1.57754E-01
-1.57069E-01
-1.56593E-01
-1.55889E-01
-1.53679E-01
-1.50785E-01
-1.46717E-01
-1.42628E-01
-1.38285E-01
-1.35872E-01
-1.36764E-01
-1.41675E-01
-1.45627E-01
-1.46455E-01
-1.65535E-01
-1.63923E-01
-1.62676E-01
-1.61920E-01
-1.61506E-01
-1.60523E-01
-1.58437E-01
-1.55156E-01
-1.51328E-01
-1.46845E-01
-1.42772E-01
-1.40109E-01
-1.41357E-01
-1.45839E-01
-1.49943E-01
-1.51177E-01
-1.71207E-01
-1.69375E-01
-1.68002E-01
-1.67201E-01
-1.66505E-01
-1.65380E-01
-1.63236E-01
-1.60443E-01
-1.56827E-01
-1.53174E-01
-1.49638E-01
-1.47769E-01
-1.48271E-01
-1.51404E-01
-1.53827E-01
-1.53578E-01
-1.76412E-01
-1.74709E-01
-1.73359E-01
-1.72395E-01
-1.71532E-01
-1.70228E-01
-1.68443E-01
-1.65911E-01
-1.63199E-01
-1.60157E-01
-1.57686E-01
-1.56047E-01
-1.56267E-01
-1.57469E-01
-1.58366E-01
-1.56888E-01
-1.81550E-01
-1.79835E-01
-1.78516E-01
-1.77478E-01
-1.76430E-01
-1.75246E-01
-1.73569E-01
-1.71721E-01
-1.69447E-01
-1.67356E-01
-1.65341E-01
-1.64195E-01
-1.63671E-01
-1.63914E-01
-1.63372E-01
-1.61707E-01
-1.86585E-01
-1.84888E-01
-1.83515E-01
-1.82381E-01
-1.81307E-01
-1.80134E-01
-1.78863E-01
-1.77219E-01
-1.75642E-01
-1.73894E-01
-1.72533E-01
-1.71260E-01
-1.70632E-01
-1.69864E-01
-1.68917E-01
-1.66612E-01
-1.91532E-01
-1.89765E-01
-1.88413E-01
-1.87222E-01
-1.85878E-01
-1.85049E-01
-1.83961E-01
-1.82649E-01
-1.81259E-01
-1.80015E-01
-1.78761E-01
-1.77704E-01
-1.76597E-01
-1.75712E-01
-1.74161E-01
-1.72159E-01
-1.96218E-01
-1.94576E-01
-1.93148E-01
-1.91920E-01
-1.90701E-01
-1.89697E-01
-1.88850E-01
-1.87699E-01
-1.86633E-01
-1.85442E-01
-1.84441E-01
-1.83193E-01
-1.82191E-01
-1.80852E-01
-1.79483E-01
-1.77279E-01
-2.00574E-01
-1.99147E-01
-1.97876E-01
-1.96616E-01
-1.95628E-01
-1.94427E-01
-1.93356E-01
-1.92537E-01
-1.91457E-01
-1.90520E-01
-1.89295E-01
-1.88305E-01
-1.87011E-01
-1.85821E-01
-1.84151E-01
-1.82313E-01
-2.05574E-01
-2.04022E-01
-2.02584E-01
-2.01340E-01
-2.00166E-01
-1.99055E-01
-1.98027E-01
-1.97004E-01
-1.96100E-01
-1.95034E-01
-1.94010E-01
-1.92767E-01
-1.91611E-01
-1.90124E-01
-1.88686E-01
-1.86638E-01
-2.10633E-01
-2.08840E-01
-2.07416E-01
-2.06046E-01
-2.04798E-01
-2.03612E-01
-2.02504E-01
-2.01479E-01
-2.00401E-01
-1.99396E-01
-1.98194E-01
-1.97049E-01
-1.95659E-01
-1.94369E-01
-1.92684E-01
-1.90908E-01
-2.15069E-01
-2.13623E-01
-2.12165E-01
-2.10816E-01
-2.09457E-01
-2.08158E-01
-2.06943E-01
-2.05725E-01
-2.04604E-01
-2.03382E-01
-2.02226E-01
-2.00870E-01
-1.99629E-01
-1.98113E-01
-1.96712E-01
-1.94686E-01
-2.19684E-01
-2.18240E-01
-2.16949E-01
-2.15431E-01
-2.14105E-01
-2.12696E-01
-2.11255E-01
-2.09859E-01
-2.08525E-01
-2.07215E-01
-2.05873E-01
-2.04618E-01
-2.03139E-01
-2.01775E-01
-2.00376E-01
-1.98824E-01
-1.31437E-01
-1.30082E-01
-1.28721E-01
-1.27290E-01
-1.26302E-01
-1.26226E-01
-1.25732E-01
-1.24502E-01
-1.23115E-01
-1.21135E-01
-1.19220E-01
-1.17310E-01
-1.17754E-01
-1.19966E-01
-1.21969E-01
-1.23121E-01
-1.36248E-01
-1.34584E-01
-1.33093E-01
-1.32018E-01
-1.31267E-01
-1.30791E-01
-1.29861E-01
-1.28640E-01
-1.26823E-01
-1.24864E-01
-1.22638E-01
-1.21158E-01
-1.20828E-01
-1.23418E-01
-1.25836E-01
-1.26081E-01
-1.41238E-01
-1.39460E-01
-1.38075E-01
-1.37036E-01
-1.36336E-01
-1.35547E-01
-1.34568E-01
-1.33105E-01
-1.31547E-01
-1.29624E-01
-1.27879E-01
-1.26470E-01
-1.26421E-01
-1.27461E-01
-1.28404E-01
-1.27724E-01
-1.45752E-01
-1.44117E-01
-1.42867E-01
-1.41931E-01
-1.41102E-01
-1.40305E-01
-1.39195E-01
-1.38023E-01
-1.36516E-01
-1.35068E-01
-1.33558E-01
-1.32509E-01
-1.31959E-01
-1.32080E-01
-1.31776E-01
-1.30402E-01
-1.50270E-01
-1.48640E-01
-1.47450E-01
-1.46478E-01
-1.45677E-01
-1.44790E-01
-1.43912E-01
-1.42778E-01
-1.41678E-01
-1.40395E-01
-1.39261E-01
-1.38189E-01
-1.37469E-01
-1.36722E-01
-1.35785E-01
-1.33805E-01
-1.54639E-01
-1.53056E-01
-1.51837E-01
-1.50853E-01
-1.49955E-01
-1.49216E-01
-1.48356E-01
-1.47521E-01
-1.46507E-01
-1.45550E-01
-1.44477E-01
-1.43518E-01
-1.42469E-01
-1.41465E-01
-1.39942E-01
-1.37908E-01
-1.59082E-01
-1.57401E-01
-1.56103E-01
-1.55032E-01
-1.54174E-01
-1.53381E-01
-1.52722E-01
-1.51917E-01
-1.51133E-01
-1.50219E-01
-1.49324E-01
-1.48257E-01
-1.47212E-01
-1.45855E-01
-1.44354E-01
-1.42061E-01
-1.63301E-01
-1.61544E-01
-1.60258E-01
-1.59209E-01
-1.58319E-01
-1.57544E-01
-1.56781E-01
-1.56119E-01
-1.55330E-01
-1.54563E-01
-1.53610E-01
-1.52657E-01
-1.51439E-01
-1.50175E-01
-1.48482E-01
-1.46543E-01
-1.67063E-01
-1.65527E-01
-1.64301E-01
-1.63309E-01
-1.62404E-01
-1.61563E-01
-1.60790E-01
-1.60034E-01
-1.59355E-01
-1.58509E-01
-1.57662E-01
-1.56586E-01
-1.55469E-01
-1.54020E-01
-1.52513E-01
-1.50440E-01
-1.71206E-01
-1.69637E-01
-1.68411E-01
-1.67317E-01
-1.66385E-01
-1.65493E-01
-1.64651E-01
-1.63920E-01
-1.63135E-01
-1.62348E-01
-1.61374E-01
-1.60362E-01
-1.59082E-01
-1.57751E-01
-1.56074E-01
-1.54254E-01
-1.75581E-01
-1.73969E-01
-1.72559E-01
-1.71408E-01
-1.70345E-01
-1.69387E-01
-1.68512E-01
-1.67650E-01
-1.66837E-01
-1.65916E-01
-1.64957E-01
-1.63797E-01
-1.62582E-01
-1.61089E-01
-1.59583E-01
-1.57577E-01
-1.79880E-01
-1.78151E-01
-1.76797E-01
-1.75509E-01
-1.74383E-01
-1.73328E-01
-1.72306E-01
-1.71335E-01
-1.70343E-01
-1.69349E-01
-1.68243E-01
-1.67093E-01
-1.65745E-01
-1.64387E-01
-1.62748E-01
-1.61005E-01
-1.83729E-01
-1.82394E-01
-1.81008E-01
-1.79648E-01
-1.78528E-01
-1.77323E-01
-1.76105E-01
-1.74867E-01
-1.73718E-01
-1.72486E-01
-1.71295E-01
-1.70054E-01
-1.68759E-01
-1.67308E-01
-1.65960E-01
-1.64248E-01
-1.02516E-01
-1.01030E-01
-9.84580E-02
-9.51944E-02
-9.04894E-02
-9.45254E-02
-9.68802E-02
-9.78837E-02
-9.78931E-02
-9.75509E-02
-9.64086E-02
-9.49661E-02
-9.18024E-02
-9.60793E-02
-9.93102E-02
-9.69062E-02
-1.06467E-01
-1.04756E-01
-1.02821E-01
-1.00551E-01
-9.91273E-02
-1.00168E-01
-1.01105E-01
-1.01367E-01
-1.01278E-01
-1.00559E-01
-9.93635E-02
-9.74852E-02
-9.71213E-02
-9.86182E-02
-9.98751E-02
-9.97446E-02
-1.10987E-01
-1.09152E-01
-1.07601E-01
-1.06469E-01
-1.05772E-01
-1.05685E-01
-1.05604E-01
-1.05520E-01
-1.05050E-01
-1.04375E-01
-1.03233E-01
-1.02128E-01
-1.01153E-01
-1.01787E-01
-1.02120E-01
-1.00918E-01
-1.14854E-01
-1.13290E-01
-1.12152E-01
-1.11284E-01
-1.10739E-01
-1.10334E-01
-1.10031E-01
-1.09582E-01
-1.09150E-01
-1.08410E-01
-1.07570E-01
-1.06507E-01
-1.05815E-01
-1.05234E-01
-1.04455E-01
-1.02874E-01
-1.18637E-01
-1.17277E-01
-1.16220E-01
-1.15475E-01
-1.14885E-01
-1.14465E-01
-1.14005E-01
-1.13636E-01
-1.13087E-01
-1.12517E-01
-1.11689E-01
-1.10846E-01
-1.09836E-01
-1.08881E-01
-1.07481E-01
-1.05522E-01
-1.22546E-01
-1.21082E-01
-1.20042E-01
-1.19238E-01
-1.18665E-01
-1.18165E-01
-1.17806E-01
-1.17354E-01
-1.16942E-01
-1.16325E-01
-1.15648E-01
-1.14709E-01
-1.13715E-01
-1.12385E-01
-1.10838E-01
-1.08618E-01
-1.26639E-01
-1.24859E-01
-1.23674E-01
-1.22824E-01
-1.22161E-01
-1.21720E-01
-1.21292E-01
-1.20943E-01
-1.20463E-01
-1.19961E-01
-1.19216E-01
-1.18372E-01
-1.17209E-01
-1.15925E-01
-1.14174E-01
-1.12119E-01
-1.30157E-01
-1.28401E-01
-1.27155E-01
-1.26268E-01
-1.25617E-01
-1.25073E-01
-1.24676E-01
-1.24242E-01
-1.23842E-01
-1.23257E-01
-1.22599E-01
-1.21651E-01
-1.20590E-01
-1.19158E-01
-1.17597E-01
-1.15506E-01
-1.33078E-01
-1.31618E-01
-1.30532E-01
-1.29662E-01
-1.28970E-01
-1.28403E-01
-1.27883E-01
-1.27480E-01
-1.26981E-01
-1.26450E-01
-1.25682E-01
-1.24811E-01
-1.23618E-01
-1.22318E-01
-1.20632E-01
-1.18799E-01
-1.36392E-01
-1.35062E-01
-1.33971E-01
-1.33074E-01
-1.32313E-01
-1.31653E-01
-1.31115E-01
-1.30580E-01
-1.30085E-01
-1.29434E-01
-1.28689E-01
-1.27683E-01
-1.26559E-01
-1.25106E-01
-1.23579E-01
-1.21595E-01
-1.40407E-01
-1.38826E-01
-1.37627E-01
-1.36593E-01
-1.35714E-01
-1.34978E-01
-1.34290E-01
-1.33694E-01
-1.33039E-01
-1.32338E-01
-1.31450E-01
-1.30450E-01
-1.29188E-01
-1.27839E-01
-1.26162E-01
-1.24444E-01
-1.44146E-01
-1.42699E-01
-1.41379E-01
-1.40278E-01
-1.39296E-01
-1.38375E-01
-1.37554E-01
-1.36711E-01
-1.35901E-01
-1.35009E-01
-1.34046E-01
-1.32901E-01
-1.31689E-01
-1.30236E-01
-1.28754E-01
-1.26810E-01
-1.48034E-01
-1.46643E-01
-1.45298E-01
-1.44123E-01
-1.43081E-01
-1.41949E-01
-1.40840E-01
-1.39762E-01
-1.38518E-01
-1.37387E-01
-1.36292E-01
-1.35082E-01
-1.33772E-01
-1.32533E-01
-1.31110E-01
-1.29552E-01
-7.47672E-02
-7.27488E-02
-6.85982E-02
-5.86801E-02
-4.40400E-03
-5.76076E-02
-6.71712E-02
-7.05855E-02
-7.20653E-02
-7.28555E-02
-7.32934E-02
-7.38518E-02
-7.57662E-02
-7.18895E-02
-6.26280E-02
-6.08303E-02
-7.73564E-02
-7.55873E-02
-7.29334E-02
-6.90311E-02
-6.34280E-02
-6.84691E-02
-7.17761E-02
-7.38392E-02
-7.49069E-02
-7.53944E-02
-7.53884E-02
-7.48072E-02
-7.37941E-02
-7.18693E-02
-6.86940E-02
-6.57292E-02
-8.07194E-02
-7.91509E-02
-7.76489E-02
-7.60766E-02
-7.48957E-02
-7.56020E-02
-7.66070E-02
-7.73560E-02
-7.79601E-02
-7.81143E-02
-7.78090E-02
-7.69727E-02
-7.57976E-02
-7.41171E-02
-7.18265E-02
-6.88660E-02
-8.39583E-02
-8.27246E-02
-8.16462E-02
-8.08699E-02
-8.04303E-02
-8.03729E-02
-8.05178E-02
-8.08388E-02
-8.09811E-02
-8.09554E-02
-8.05132E-02
-7.96929E-02
-7.84296E-02
-7.68798E-02
-7.47673E-02
-7.21231E-02
-8.76264E-02
-8.61510E-02
-8.51576E-02
-8.44945E-02
-8.41147E-02
-8.39222E-02
-8.39268E-02
-8.39263E-02
-8.39619E-02
-8.37447E-02
-8.32929E-02
-8.24273E-02
-8.12650E-02
-7.96385E-02
-7.76516E-02
-7.49832E-02
-9.09788E-02
-8.92961E-02
-8.82466E-02
-8.75843E-02
-8.71667E-02
-8.69741E-02
-8.68499E-02
-8.68375E-02
-8.67049E-02
-8.64830E-02
-8.59434E-02
-8.51541E-02
-8.39432E-02
-8.24664E-02
-8.04615E-02
-7.81000E-02
-9.35354E-02
-9.20767E-02
-9.10613E-02
-9.03783E-02
-8.99629E-02
-8.96958E-02
-8.95933E-02
-8.94680E-02
-8.93515E-02
-8.90259E-02
-8.85328E-02
-8.76829E-02
-8.66041E-02
-8.50987E-02
-8.33734E-02
-8.11325E-02
-9.63129E-02
-9.47926E-02
-9.37707E-02
-9.30745E-02
-9.26002E-02
-9.23299E-02
-9.21289E-02
-9.20190E-02
-9.18040E-02
-9.15045E-02
-9.09305E-02
-9.01585E-02
-8.90192E-02
-8.77010E-02
-8.59850E-02
-8.41012E-02
-9.87539E-02
-9.74469E-02
-9.64679E-02
-9.57476E-02
-9.52398E-02
-9.48697E-02
-9.46540E-02
-9.44377E-02
-9.42271E-02
-9.38351E-02
-9.32825E-02
-9.24232E-02
-9.13753E-02
-8.99755E-02
-8.84615E-02
-8.65813E-02
-1.01658E-01
-1.00335E-01
-9.93287E-02
-9.85247E-02
-9.79078E-02
-9.74829E-02
-9.71328E-02
-9.68820E-02
-9.65560E-02
-9.61314E-02
-9.54755E-02
-9.46203E-02
-9.34625E-02
-9.21603E-02
-9.05117E-02
-8.87860E-02
-1.04980E-01
-1.03567E-01
-1.02400E-01
-1.01482E-01
-1.00768E-01
-1.00166E-01
-9.97272E-02
-9.92876E-02
-9.88542E-02
-9.82921E-02
-9.75473E-02
-9.65795E-02
-9.54432E-02
-9.40296E-02
-9.25602E-02
-9.07164E-02
-1.08091E-01
-1.06814E-01
-1.05719E-01
-1.04736E-01
-1.03857E-01
-1.03134E-01
-1.02403E-01
-1.01744E-01
-1.01017E-01
-1.00214E-01
-9.93377E-02
-9.83078E-02
-9.70913E-02
-9.57987E-02
-9.42353E-02
-9.26872E-02
-1.11505E-01
-1.10427E-01
-1.09364E-01
-1.08354E-01
-1.07449E-01
-1.06403E-01
-1.05327E-01
-1.04194E-01
-1.02958E-01
-1.01675E-01
-1.00615E-01
-9.95981E-02
-9.84659E-02
-9.71934E-02
-9.58774E-02
-9.41806E-02
-4.76860E-02
-4.58490E-02
-4.37715E-02
-4.04841E-02
-3.58638E-02
-3.95057E-02
-4.20466E-02
-4.40239E-02
-4.56132E-02
-4.69391E-02
-4.82198E-02
-4.97286E-02
-5.28939E-02
-4.12354E-02
-2.78434E-02
-2.60865E-02
-4.92938E-02
-4.77459E-02
-4.60374E-02
-4.40912E-02
-4.22762E-02
-4.31052E-02
-4.49592E-02
-4.65281E-02
-4.79350E-02
-4.90706E-02
-4.97683E-02
-5.03603E-02
-4.84808E-02
-4.30947E-02
-3.62489E-02
-3.02603E-02
-5.13311E-02
-5.00689E-02
-4.88916E-02
-4.78802E-02
-4.72525E-02
-4.74232E-02
-4.81081E-02
-4.91743E-02
-5.01079E-02
-5.07981E-02
-5.11271E-02
-5.04926E-02
-4.88869E-02
-4.50116E-02
-4.00692E-02
-3.51735E-02
-5.39513E-02
-5.26088E-02
-5.16532E-02
-5.10069E-02
-5.06471E-02
-5.06532E-02
-5.10444E-02
-5.15696E-02
-5.21607E-02
-5.25084E-02
-5.23815E-02
-5.16617E-02
-4.99072E-02
-4.71587E-02
-4.37426E-02
-3.95583E-02
-5.68731E-02
-5.51681E-02
-5.41533E-02
-5.35474E-02
-5.32593E-02
-5.32494E-02
-5.34212E-02
-5.37758E-02
-5.40596E-02
-5.41720E-02
-5.38928E-02
-5.30531E-02
-5.15555E-02
-4.94074E-02
-4.65776E-02
-4.34242E-02
-5.88940E-02
-5.73236E-02
-5.63014E-02
-5.57174E-02
-5.54457E-02
-5.53858E-02
-5.55260E-02
-5.57005E-02
-5.58736E-02
-5.58226E-02
-5.54674E-02
-5.46466E-02
-5.33599E-02
-5.15006E-02
-4.92901E-02
-4.64885E-02
-6.03142E-02
-5.90890E-02
-5.82260E-02
-5.76739E-02
-5.73858E-02
-5.73270E-02
-5.73779E-02
-5.75197E-02
-5.75669E-02
-5.74714E-02
-5.70558E-02
-5.63110E-02
-5.51111E-02
-5.35944E-02
-5.16006E-02
-4.94002E-02
-6.22979E-02
-6.10098E-02
-6.01339E-02
-5.95672E-02
-5.92611E-02
-5.91329E-02
-5.91696E-02
-5.92194E-02
-5.92441E-02
-5.90725E-02
-5.86695E-02
-5.79113E-02
-5.68679E-02
-5.54232E-02
-5.37787E-02
-5.16962E-02
-6.43656E-02
-6.30581E-02
-6.21461E-02
-6.15256E-02
-6.11348E-02
-6.09698E-02
-6.09082E-02
-6.09340E-02
-6.08802E-02
-6.06847E-02
-6.02282E-02
-5.95033E-02
-5.84401E-02
-5.71702E-02
-5.55559E-02
-5.38449E-02
-6.65382E-02
-6.53166E-02
-6.43443E-02
-6.36269E-02
-6.31617E-02
-6.28551E-02
-6.27401E-02
-6.26483E-02
-6.25331E-02
-6.22610E-02
-6.17452E-02
-6.09590E-02
-5.99309E-02
-5.86180E-02
-5.71908E-02
-5.54384E-02
-6.91214E-02
-6.78491E-02
-6.68303E-02
-6.60265E-02
-6.53850E-02
-6.49881E-02
-6.46566E-02
-6.44361E-02
-6.41640E-02
-6.37302E-02
-6.31240E-02
-6.22502E-02
-6.11574E-02
-5.99275E-02
-5.84885E-02
-5.70863E-02
-7.17977E-02
-7.07185E-02
-6.96929E-02
-6.88023E-02
-6.80982E-02
-6.73986E-02
-6.68590E-02
-6.62584E-02
-6.56404E-02
-6.49964E-02
-6.41400E-02
-6.32109E-02
-6.21058E-02
-6.08208E-02
-5.95129E-02
-5.80438E-02
-7.50377E-02
-7.39856E-02
-7.30488E-02
-7.22845E-02
-7.14083E-02
-7.05849E-02
-6.93806E-02
-6.81690E-02
-6.68162E-02
-6.54765E-02
-6.45811E-02
-6.35872E-02
-6.25865E-02
-6.13989E-02
-5.99682E-02
-5.85204E-02
-2.12082E-02
-1.93614E-02
-1.80464E-02
-1.71876E-02
-1.59421E-02
-1.59170E-02
-1.66473E-02
-1.73110E-02
-1.83187E-02
-1.93366E-02
-2.00001E-02
-2.06976E-02
-1.80456E-02
-1.21394E-02
-4.87870E-03
 2.03197E-03
-2.19406E-02
-2.03441E-02
-1.91738E-02
-1.81023E-02
-1.73392E-02
-1.73342E-02
-1.78898E-02
-1.89975E-02
-2.01437E-02
-2.10858E-02
-2.18495E-02
-2.12183E-02
-1.92720E-02
-1.39087E-02
-7.47149E-03
-1.57796E-03
-2.28585E-02
-2.15441E-02
-2.05040E-02
-1.97601E-02
-1.92646E-02
-1.92234E-02
-1.97715E-02
-2.05806E-02
-2.15141E-02
-2.22910E-02
-2.23998E-02
-2.18116E-02
-1.94071E-02
-1.54856E-02
-1.05550E-02
-4.82699E-03
-2.44627E-02
-2.29809E-02
-2.20204E-02
-2.13612E-02
-2.10425E-02
-2.10726E-02
-2.14117E-02
-2.20424E-02
-2.26786E-02
-2.30746E-02
-2.30448E-02
-2.20811E-02
-2.01861E-02
-1.70768E-02
-1.31047E-02
-8.84752E-03
-2.60182E-02
-2.44408E-02
-2.33889E-02
-2.28070E-02
-2.25441E-02
-2.25655E-02
-2.28569E-02
-2.32658E-02
-2.36807E-02
-2.38778E-02
-2.36054E-02
-2.27426E-02
-2.10644E-02
-1.86030E-02
-1.56345E-02
-1.20052E-02
-2.69626E-02
-2.55045E-02
-2.45874E-02
-2.40362E-02
-2.38092E-02
-2.38398E-02
-2.40415E-02
-2.43561E-02
-2.46066E-02
-2.46543E-02
-2.43347E-02
-2.35048E-02
-2.20901E-02
-2.01619E-02
-1.76518E-02
-1.49213E-02
-2.77740E-02
-2.65061E-02
-2.56646E-02
-2.51670E-02
-2.49456E-02
-2.49454E-02
-2.51181E-02
-2.53354E-02
-2.55078E-02
-2.54765E-02
-2.51321E-02
-2.43690E-02
-2.31882E-02
-2.15204E-02
-1.95752E-02
-1.71483E-02
-2.89444E-02
-2.76877E-02
-2.68324E-02
-2.63057E-02
-2.60476E-02
-2.60212E-02
-2.61276E-02
-2.63062E-02
-2.64125E-02
-2.63427E-02
-2.59865E-02
-2.52923E-02
-2.42066E-02
-2.28387E-02
-2.10918E-02
-1.92240E-02
-3.02952E-02
-2.90545E-02
-2.81483E-02
-2.75508E-02
-2.72356E-02
-2.71205E-02
-2.71876E-02
-2.72964E-02
-2.73585E-02
-2.72538E-02
-2.68739E-02
-2.61874E-02
-2.52012E-02
-2.38945E-02
-2.24305E-02
-2.06550E-02
-3.17961E-02
-3.06194E-02
-2.96885E-02
-2.90173E-02
-2.85704E-02
-2.83875E-02
-2.83266E-02
-2.83664E-02
-2.83560E-02
-2.81615E-02
-2.77526E-02
-2.70221E-02
-2.60298E-02
-2.48337E-02
-2.33909E-02
-2.18963E-02
-3.37340E-02
-3.25866E-02
-3.15862E-02
-3.07885E-02
-3.02625E-02
-2.98615E-02
-2.96821E-02
-2.95252E-02
-2.93328E-02
-2.90386E-02
-2.84538E-02
-2.76942E-02
-2.66621E-02
-2.54714E-02
-2.42453E-02
-2.29829E-02
-3.60212E-02
-3.49245E-02
-3.39344E-02
-3.31330E-02
-3.23953E-02
-3.18679E-02
-3.12870E-02
-3.07899E-02
-3.02530E-02
-2.95611E-02
-2.88701E-02
-2.79100E-02
-2.69028E-02
-2.57669E-02
-2.44971E-02
-2.33147E-02
-3.87457E-02
-3.78303E-02
-3.70583E-02
-3.61646E-02
-3.54856E-02
-3.45439E-02
-3.34793E-02
-3.21494E-02
-3.07579E-02
-2.95427E-02
-2.83144E-02
-2.74309E-02
-2.65908E-02
-2.55354E-02
-2.41651E-02
-2.26211E-02
 6.02541E-03
 8.21499E-03
 8.92129E-03
 9.38882E-03
 9.99291E-03
 1.03939E-02
 1.05763E-02
 1.03189E-02
 9.96285E-03
 9.74849E-03
 9.44846E-03
 1.03650E-02
 1.24348E-02
 1.66120E-02
 2.18414E-02
 2.71789E-02
 5.84058E-03
 7.42352E-03
 8.68044E-03
 9.49860E-03
 1.00666E-02
 1.03115E-02
 1.00138E-02
 9.45094E-03
 8.73938E-03
 8.07744E-03
 8.14162E-03
 8.83298E-03
 1.13971E-02
 1.53018E-02
 2.01887E-02
 2.56736E-02
 5.75500E-03
 7.22803E-03
 8.23788E-03
 9.06039E-03
 9.52561E-03
 9.58941E-03
 9.29894E-03
 8.66529E-03
 7.96341E-03
 7.53928E-03
 7.51603E-03
 8.62315E-03
 1.07259E-02
 1.42421E-02
 1.85914E-02
 2.32877E-02
 5.22562E-03
 6.72866E-03
 7.82585E-03
 8.48959E-03
 8.85824E-03
 8.88689E-03
 8.57493E-03
 8.07566E-03
 7.56144E-03
 7.23839E-03
 7.51230E-03
 8.43918E-03
 1.04321E-02
 1.33134E-02
 1.68359E-02
 2.10065E-02
 4.94918E-03
 6.43668E-03
 7.39099E-03
 8.02052E-03
 8.29398E-03
 8.28518E-03
 8.04005E-03
 7.64884E-03
 7.28188E-03
 7.16857E-03
 7.45002E-03
 8.40769E-03
 1.00489E-02
 1.23859E-02
 1.53640E-02
 1.86029E-02
 4.75154E-03
 6.12855E-03
 7.06628E-03
 7.60161E-03
 7.85329E-03
 7.83637E-03
 7.62982E-03
 7.33589E-03
 7.09711E-03
 7.05918E-03
 7.41539E-03
 8.24739E-03
 9.63644E-03
 1.15939E-02
 1.39066E-02
 1.67322E-02
 4.49701E-03
 5.81278E-03
 6.68944E-03
 7.22945E-03
 7.46092E-03
 7.46422E-03
 7.30029E-03
 7.07238E-03
 6.90029E-03
 6.93492E-03
 7.27605E-03
 8.02839E-03
 9.23015E-03
 1.08013E-02
 1.28123E-02
 1.49911E-02
 3.99823E-03
 5.29996E-03
 6.21590E-03
 6.77520E-03
 7.05058E-03
 7.09149E-03
 6.97075E-03
 6.78906E-03
 6.67296E-03
 6.72442E-03
 7.07533E-03
 7.76263E-03
 8.79834E-03
 1.02013E-02
 1.18137E-02
 1.37724E-02
 3.28708E-03
 4.60443E-03
 5.55401E-03
 6.18319E-03
 6.53230E-03
 6.63113E-03
 6.57480E-03
 6.44503E-03
 6.35727E-03
 6.46335E-03
 6.80251E-03
 7.47665E-03
 8.45085E-03
 9.66501E-03
 1.11499E-02
 1.26987E-02
 2.54670E-03
 3.68589E-03
 4.65269E-03
 5.36507E-03
 5.79139E-03
 6.01640E-03
 6.03432E-03
 5.98823E-03
 5.99451E-03
 6.12309E-03
 6.55673E-03
 7.22294E-03
 8.18698E-03
 9.36607E-03
 1.06625E-02
 1.21687E-02
 1.14536E-03
 2.34962E-03
 3.37415E-03
 4.14641E-03
 4.74363E-03
 5.06913E-03
 5.29806E-03
 5.41577E-03
 5.55870E-03
 5.89781E-03
 6.36067E-03
 7.16875E-03
 8.12819E-03
 9.25800E-03
 1.05200E-02
 1.17553E-02
-4.97823E-04
 5.53195E-04
 1.53678E-03
 2.41167E-03
 3.06217E-03
 3.70271E-03
 4.17249E-03
 4.69566E-03
 5.26777E-03
 5.83580E-03
 6.64815E-03
 7.42037E-03
 8.43716E-03
 9.53756E-03
 1.06799E-02
 1.19399E-02
-2.79132E-03
-2.01328E-03
-9.92679E-04
-2.58383E-04
 6.00994E-04
 1.38499E-03
 2.54252E-03
 3.85858E-03
 5.20204E-03
 6.53456E-03
 7.65443E-03
 8.65495E-03
 9.25673E-03
 1.02637E-02
 1.13550E-02
 1.24257E-02
 3.43706E-02
 3.59348E-02
 3.68934E-02
 3.73081E-02
 3.78908E-02
 3.84003E-02
 3.87973E-02
 3.90504E-02
 3.91282E-02
 3.92451E-02
 3.96201E-02
 4.05153E-02
 4.27581E-02
 4.57012E-02
 4.94163E-02
 5.40432E-02
 3.44471E-02
 3.60678E-02
 3.71196E-02
 3.80253E-02
 3.86392E-02
 3.89088E-02
 3.89316E-02
 3.86791E-02
 3.83349E-02
 3.82614E-02
 3.84694E-02
 3.96639E-02
 4.16638E-02
 4.48356E-02
 4.87184E-02
 5.31154E-02
 3.47922E-02
 3.62783E-02
 3.75064E-02
 3.83237E-02
 3.88659E-02
 3.90649E-02
 3.89082E-02
 3.85513E-02
 3.81935E-02
 3.79846E-02
 3.83963E-02
 3.94054E-02
 4.14526E-02
 4.43093E-02
 4.78586E-02
 5.20328E-02
 3.48176E-02
 3.66601E-02
 3.77744E-02
 3.85825E-02
 3.90070E-02
 3.91290E-02
 3.89723E-02
 3.86520E-02
 3.83245E-02
 3.82780E-02
 3.86144E-02
 3.96865E-02
 4.14381E-02
 4.39478E-02
 4.70980E-02
 5.06219E-02
 3.57382E-02
 3.71423E-02
 3.81909E-02
 3.88326E-02
 3.92136E-02
 3.92864E-02
 3.91519E-02
 3.88904E-02
 3.86884E-02
 3.86729E-02
 3.91011E-02