# vtk DataFile Version 2.0
Output of NLACE
ASCII
DATASET UNSTRUCTURED_GRID
POINTS         3120 FLOAT
 1.972100E-01 -9.337178E+00 -1.349336E+01
 1.773206E+00 -9.340790E+00 -1.349290E+01
 3.349202E+00 -9.344402E+00 -1.349243E+01
 4.925198E+00 -9.348014E+00 -1.349197E+01
 6.501194E+00 -9.351626E+00 -1.349151E+01
 8.077190E+00 -9.355238E+00 -1.349104E+01
 9.653186E+00 -9.358850E+00 -1.349058E+01
 1.122918E+01 -9.362462E+00 -1.349011E+01
 1.280518E+01 -9.366074E+00 -1.348965E+01
 1.438117E+01 -9.369686E+00 -1.348919E+01
 1.595717E+01 -9.373298E+00 -1.348872E+01
 1.753317E+01 -9.376910E+00 -1.348826E+01
 1.910916E+01 -9.380522E+00 -1.348779E+01
 2.068516E+01 -9.384134E+00 -1.348733E+01
 2.226115E+01 -9.387746E+00 -1.348687E+01
 2.383715E+01 -9.391358E+00 -1.348640E+01
 1.936540E-01 -1.091852E+01 -1.373697E+01
 1.769650E+00 -1.092213E+01 -1.373650E+01
 3.345646E+00 -1.092575E+01 -1.373604E+01
 4.921642E+00 -1.092936E+01 -1.373558E+01
 6.497638E+00 -1.093297E+01 -1.373511E+01
 8.073634E+00 -1.093658E+01 -1.373465E+01
 9.649630E+00 -1.094019E+01 -1.373418E+01
 1.122563E+01 -1.094381E+01 -1.373372E+01
 1.280162E+01 -1.094742E+01 -1.373325E+01
 1.437762E+01 -1.095103E+01 -1.373279E+01
 1.595361E+01 -1.095464E+01 -1.373233E+01
 1.752961E+01 -1.095825E+01 -1.373186E+01
 1.910561E+01 -1.096187E+01 -1.373140E+01
 2.068160E+01 -1.096548E+01 -1.373094E+01
 2.225760E+01 -1.096909E+01 -1.373047E+01
 2.383359E+01 -1.097270E+01 -1.373001E+01
 1.900980E-01 -1.249987E+01 -1.398057E+01
 1.766094E+00 -1.250348E+01 -1.398011E+01
 3.342090E+00 -1.250709E+01 -1.397964E+01
 4.918086E+00 -1.251070E+01 -1.397918E+01
 6.494082E+00 -1.251431E+01 -1.397871E+01
 8.070078E+00 -1.251793E+01 -1.397825E+01
 9.646074E+00 -1.252154E+01 -1.397779E+01
 1.122207E+01 -1.252515E+01 -1.397732E+01
 1.279807E+01 -1.252876E+01 -1.397686E+01
 1.437406E+01 -1.253237E+01 -1.397640E+01
 1.595006E+01 -1.253599E+01 -1.397593E+01
 1.752605E+01 -1.253960E+01 -1.397547E+01
 1.910205E+01 -1.254321E+01 -1.397500E+01
 2.067805E+01 -1.254682E+01 -1.397454E+01
 2.225404E+01 -1.255043E+01 -1.397407E+01
 2.383004E+01 -1.255405E+01 -1.397361E+01
 1.865420E-01 -1.408121E+01 -1.422417E+01
 1.762538E+00 -1.408482E+01 -1.422371E+01
 3.338534E+00 -1.408843E+01 -1.422325E+01
 4.914530E+00 -1.409205E+01 -1.422278E+01
 6.490526E+00 -1.409566E+01 -1.422232E+01
 8.066522E+00 -1.409927E+01 -1.422185E+01
 9.642518E+00 -1.410288E+01 -1.422139E+01
 1.121851E+01 -1.410649E+01 -1.422093E+01
 1.279451E+01 -1.411011E+01 -1.422046E+01
 1.437051E+01 -1.411372E+01 -1.422000E+01
 1.594650E+01 -1.411733E+01 -1.421953E+01
 1.752250E+01 -1.412094E+01 -1.421907E+01
 1.909849E+01 -1.412455E+01 -1.421861E+01
 2.067449E+01 -1.412817E+01 -1.421814E+01
 2.225049E+01 -1.413178E+01 -1.421768E+01
 2.382648E+01 -1.413539E+01 -1.421721E+01
 1.829860E-01 -1.566255E+01 -1.446778E+01
 1.758982E+00 -1.566617E+01 -1.446731E+01
 3.334978E+00 -1.566978E+01 -1.446685E+01
 4.910974E+00 -1.567339E+01 -1.446639E+01
 6.486970E+00 -1.567700E+01 -1.446592E+01
 8.062966E+00 -1.568061E+01 -1.446546E+01
 9.638962E+00 -1.568423E+01 -1.446499E+01
 1.121496E+01 -1.568784E+01 -1.446453E+01
 1.279095E+01 -1.569145E+01 -1.446407E+01
 1.436695E+01 -1.569506E+01 -1.446360E+01
 1.594295E+01 -1.569867E+01 -1.446314E+01
 1.751894E+01 -1.570229E+01 -1.446268E+01
 1.909494E+01 -1.570590E+01 -1.446221E+01
 2.067093E+01 -1.570951E+01 -1.446175E+01
 2.224693E+01 -1.571312E+01 -1.446128E+01
 2.382293E+01 -1.571673E+01 -1.446082E+01
 1.794300E-01 -1.724390E+01 -1.471138E+01
 1.755426E+00 -1.724751E+01 -1.471092E+01
 3.331422E+00 -1.725112E+01 -1.471045E+01
 4.907418E+00 -1.725473E+01 -1.470999E+01
 6.483414E+00 -1.725835E+01 -1.470953E+01
 8.059410E+00 -1.726196E+01 -1.470906E+01
 9.635406E+00 -1.726557E+01 -1.470860E+01
 1.121140E+01 -1.726918E+01 -1.470814E+01
 1.278740E+01 -1.727279E+01 -1.470767E+01
 1.436339E+01 -1.727641E+01 -1.470721E+01
 1.593939E+01 -1.728002E+01 -1.470674E+01
 1.751539E+01 -1.728363E+01 -1.470628E+01
 1.909138E+01 -1.728724E+01 -1.470581E+01
 2.066738E+01 -1.729085E+01 -1.470535E+01
 2.224337E+01 -1.729447E+01 -1.470489E+01
 2.381937E+01 -1.729808E+01 -1.470442E+01
 1.758740E-01 -1.882524E+01 -1.495499E+01
 1.751870E+00 -1.882885E+01 -1.495452E+01
 3.327866E+00 -1.883247E+01 -1.495406E+01
 4.903862E+00 -1.883608E+01 -1.495359E+01
 6.479858E+00 -1.883969E+01 -1.495313E+01
 8.055854E+00 -1.884330E+01 -1.495267E+01
 9.631850E+00 -1.884691E+01 -1.495220E+01
 1.120785E+01 -1.885053E+01 -1.495174E+01
 1.278384E+01 -1.885414E+01 -1.495127E+01
 1.435984E+01 -1.885775E+01 -1.495081E+01
 1.593583E+01 -1.886136E+01 -1.495035E+01
 1.751183E+01 -1.886497E+01 -1.494988E+01
 1.908783E+01 -1.886859E+01 -1.494942E+01
 2.066382E+01 -1.887220E+01 -1.494895E+01
 2.223982E+01 -1.887581E+01 -1.494849E+01
 2.381581E+01 -1.887942E+01 -1.494803E+01
 1.723180E-01 -2.040659E+01 -1.519859E+01
 1.748314E+00 -2.041020E+01 -1.519813E+01
 3.324310E+00 -2.041381E+01 -1.519766E+01
 4.900306E+00 -2.041742E+01 -1.519720E+01
 6.476302E+00 -2.042103E+01 -1.519673E+01
 8.052298E+00 -2.042465E+01 -1.519627E+01
 9.628294E+00 -2.042826E+01 -1.519581E+01
 1.120429E+01 -2.043187E+01 -1.519534E+01
 1.278029E+01 -2.043548E+01 -1.519488E+01
 1.435628E+01 -2.043909E+01 -1.519441E+01
 1.593228E+01 -2.044271E+01 -1.519395E+01
 1.750827E+01 -2.044632E+01 -1.519349E+01
 1.908427E+01 -2.044993E+01 -1.519302E+01
 2.066027E+01 -2.045354E+01 -1.519256E+01
 2.223626E+01 -2.045715E+01 -1.519209E+01
 2.381226E+01 -2.046077E+01 -1.519163E+01
 1.687620E-01 -2.198793E+01 -1.544219E+01
 1.744758E+00 -2.199154E+01 -1.544173E+01
 3.320754E+00 -2.199515E+01 -1.544127E+01
 4.896750E+00 -2.199877E+01 -1.544080E+01
 6.472746E+00 -2.200238E+01 -1.544034E+01
 8.048742E+00 -2.200599E+01 -1.543988E+01
 9.624738E+00 -2.200960E+01 -1.543941E+01
 1.120073E+01 -2.201321E+01 -1.543895E+01
 1.277673E+01 -2.201683E+01 -1.543848E+01
 1.435273E+01 -2.202044E+01 -1.543802E+01
 1.592872E+01 -2.202405E+01 -1.543755E+01
 1.750472E+01 -2.202766E+01 -1.543709E+01
 1.908071E+01 -2.203127E+01 -1.543663E+01
 2.065671E+01 -2.203489E+01 -1.543616E+01
 2.223271E+01 -2.203850E+01 -1.543570E+01
 2.380870E+01 -2.204211E+01 -1.543523E+01
 1.652060E-01 -2.356927E+01 -1.568580E+01
 1.741202E+00 -2.357289E+01 -1.568534E+01
 3.317198E+00 -2.357650E+01 -1.568487E+01
 4.893194E+00 -2.358011E+01 -1.568441E+01
 6.469190E+00 -2.358372E+01 -1.568394E+01
 8.045186E+00 -2.358733E+01 -1.568348E+01
 9.621182E+00 -2.359095E+01 -1.568301E+01
 1.119718E+01 -2.359456E+01 -1.568255E+01
 1.277317E+01 -2.359817E+01 -1.568209E+01
 1.434917E+01 -2.360178E+01 -1.568162E+01
 1.592517E+01 -2.360539E+01 -1.568116E+01
 1.750116E+01 -2.360901E+01 -1.568070E+01
 1.907716E+01 -2.361262E+01 -1.568023E+01
 2.065315E+01 -2.361623E+01 -1.567977E+01
 2.222915E+01 -2.361984E+01 -1.567930E+01
 2.380515E+01 -2.362345E+01 -1.567884E+01
 1.616500E-01 -2.515062E+01 -1.592940E+01
 1.737646E+00 -2.515423E+01 -1.592894E+01
 3.313642E+00 -2.515784E+01 -1.592847E+01
 4.889638E+00 -2.516145E+01 -1.592801E+01
 6.465634E+00 -2.516507E+01 -1.592755E+01
 8.041630E+00 -2.516868E+01 -1.592708E+01
 9.617626E+00 -2.517229E+01 -1.592662E+01
 1.119362E+01 -2.517590E+01 -1.592615E+01
 1.276962E+01 -2.517951E+01 -1.592569E+01
 1.434561E+01 -2.518313E+01 -1.592523E+01
 1.592161E+01 -2.518674E+01 -1.592476E+01
 1.749761E+01 -2.519035E+01 -1.592430E+01
 1.907360E+01 -2.519396E+01 -1.592383E+01
 2.064960E+01 -2.519757E+01 -1.592337E+01
 2.222559E+01 -2.520119E+01 -1.592291E+01
 2.380159E+01 -2.520480E+01 -1.592244E+01
 1.580940E-01 -2.673196E+01 -1.617301E+01
 1.734090E+00 -2.673557E+01 -1.617254E+01
 3.310086E+00 -2.673919E+01 -1.617208E+01
 4.886082E+00 -2.674280E+01 -1.617161E+01
 6.462078E+00 -2.674641E+01 -1.617115E+01
 8.038074E+00 -2.675002E+01 -1.617069E+01
 9.614070E+00 -2.675363E+01 -1.617022E+01
 1.119007E+01 -2.675725E+01 -1.616976E+01
 1.276606E+01 -2.676086E+01 -1.616929E+01
 1.434206E+01 -2.676447E+01 -1.616883E+01
 1.591805E+01 -2.676808E+01 -1.616837E+01
 1.749405E+01 -2.677169E+01 -1.616790E+01
 1.907005E+01 -2.677531E+01 -1.616744E+01
 2.064604E+01 -2.677892E+01 -1.616698E+01
 2.222204E+01 -2.678253E+01 -1.616651E+01
 2.379803E+01 -2.678614E+01 -1.616605E+01
 1.545380E-01 -2.831331E+01 -1.641661E+01
 1.730534E+00 -2.831692E+01 -1.641615E+01
 3.306530E+00 -2.832053E+01 -1.641568E+01
 4.882526E+00 -2.832414E+01 -1.641522E+01
 6.458522E+00 -2.832775E+01 -1.641475E+01
 8.034518E+00 -2.833137E+01 -1.641429E+01
 9.610514E+00 -2.833498E+01 -1.641383E+01
 1.118651E+01 -2.833859E+01 -1.641336E+01
 1.276251E+01 -2.834220E+01 -1.641290E+01
 1.433850E+01 -2.834581E+01 -1.641243E+01
 1.591450E+01 -2.834943E+01 -1.641197E+01
 1.749049E+01 -2.835304E+01 -1.641151E+01
 1.906649E+01 -2.835665E+01 -1.641104E+01
 2.064249E+01 -2.836026E+01 -1.641058E+01
 2.221848E+01 -2.836387E+01 -1.641011E+01
 2.379448E+01 -2.836749E+01 -1.640965E+01
 2.232970E-01 -9.597983E+00 -1.170574E+01
 1.799293E+00 -9.601119E+00 -1.170521E+01
 3.375289E+00 -9.604255E+00 -1.170468E+01
 4.951285E+00 -9.607391E+00 -1.170414E+01
 6.527281E+00 -9.610527E+00 -1.170361E+01
 8.103277E+00 -9.613663E+00 -1.170308E+01
 9.679273E+00 -9.616799E+00 -1.170255E+01
 1.125527E+01 -9.619935E+00 -1.170202E+01
 1.283127E+01 -9.623071E+00 -1.170148E+01
 1.440726E+01 -9.626207E+00 -1.170095E+01
 1.598326E+01 -9.629343E+00 -1.170042E+01
 1.755925E+01 -9.632479E+00 -1.169989E+01
 1.913525E+01 -9.635615E+00 -1.169936E+01
 2.071124E+01 -9.638751E+00 -1.169882E+01
 2.228724E+01 -9.641887E+00 -1.169829E+01
 2.386324E+01 -9.645023E+00 -1.169776E+01
 2.202130E-01 -1.118396E+01 -1.191705E+01
 1.796209E+00 -1.118710E+01 -1.191652E+01
 3.372205E+00 -1.119023E+01 -1.191599E+01
 4.948201E+00 -1.119337E+01 -1.191546E+01
 6.524197E+00 -1.119651E+01 -1.191492E+01
 8.100193E+00 -1.119964E+01 -1.191439E+01
 9.676189E+00 -1.120278E+01 -1.191386E+01
 1.125219E+01 -1.120591E+01 -1.191333E+01
 1.282818E+01 -1.120905E+01 -1.191280E+01
 1.440418E+01 -1.121219E+01 -1.191226E+01
 1.598017E+01 -1.121532E+01 -1.191173E+01
[...]
POINT_DATA         3120
 SCALARS predictedDisp11 float  1                  
LOOKUP_TABLE default
-1.94002E+00
-1.97418E+00
-1.94419E+00
-1.98195E+00
-1.97616E+00
-2.00663E+00
-1.94725E+00
-1.90962E+00
-1.80757E+00
-1.74669E+00
-1.65790E+00
-1.62453E+00
-1.60607E+00
-1.64218E+00
-1.64797E+00
-1.66379E+00
-1.91135E+00
-1.90782E+00
-1.92852E+00
-1.92321E+00
-1.95903E+00
-1.94488E+00
-1.92434E+00
-1.84331E+00
-1.77898E+00
-1.68593E+00
-1.62588E+00
-1.57247E+00
-1.57198E+00
-1.58415E+00
-1.60561E+00
-1.59876E+00
-1.77347E+00
-1.80121E+00
-1.79014E+00
-1.81821E+00
-1.81303E+00
-1.82156E+00
-1.76854E+00
-1.72326E+00
-1.63658E+00
-1.57699E+00
-1.50375E+00
-1.47115E+00
-1.44751E+00
-1.45807E+00
-1.44789E+00
-1.45146E+00
-1.57624E+00
-1.57030E+00
-1.59393E+00
-1.58718E+00
-1.60391E+00
-1.57571E+00
-1.55411E+00
-1.48723E+00
-1.43861E+00
-1.36537E+00
-1.32209E+00
-1.27350E+00
-1.25798E+00
-1.23467E+00
-1.22363E+00
-1.19949E+00
-1.27018E+00
-1.28706E+00
-1.28345E+00
-1.30024E+00
-1.28520E+00
-1.28003E+00
-1.23618E+00
-1.20291E+00
-1.14148E+00
-1.10023E+00
-1.04532E+00
-1.01497E+00
-9.77001E-01
-9.54825E-01
-9.17675E-01
-9.02589E-01
-9.19823E-01
-9.13371E-01
-9.29657E-01
-9.25347E-01
-9.27810E-01
-9.03205E-01
-8.83600E-01
-8.39297E-01
-8.05564E-01
-7.56613E-01
-7.22752E-01
-6.80299E-01
-6.50151E-01
-6.09469E-01
-5.74609E-01
-5.45315E-01
-5.12627E-01
-5.15794E-01
-5.20759E-01
-5.27537E-01
-5.18533E-01
-5.08186E-01
-4.81757E-01
-4.56323E-01
-4.19706E-01
-3.88203E-01
-3.50600E-01
-3.18056E-01
-2.80199E-01
-2.41767E-01
-2.00428E-01
-1.72545E-01
-1.03277E-01
-1.02048E-01
-1.08625E-01
-1.14460E-01
-1.10104E-01
-1.00093E-01
-8.19495E-02
-5.96514E-02
-3.27736E-02
-5.14919E-03
 2.60581E-02
 5.64762E-02
 9.30020E-02
 1.29086E-01
 1.72796E-01
 1.95856E-01
 2.84072E-01
 2.92310E-01
 2.76893E-01
 2.77847E-01
 2.73228E-01
 2.86329E-01
 2.94122E-01
 3.16315E-01
 3.32058E-01
 3.59897E-01
 3.80130E-01
 4.13186E-01
 4.38795E-01
 4.80436E-01
 5.10467E-01
 5.44148E-01
 6.26999E-01
 6.19172E-01
 6.21957E-01
 6.05083E-01
 6.14371E-01
 6.09519E-01
 6.27748E-01
 6.31661E-01
 6.56237E-01
 6.66161E-01
 6.95723E-01
 7.10615E-01
 7.46656E-01
 7.67910E-01
 8.09885E-01
 8.20820E-01
 8.71170E-01
 8.87224E-01
 8.65565E-01
 8.73546E-01
 8.58123E-01
 8.73302E-01
 8.67224E-01
 8.88741E-01
 8.89568E-01
 9.16188E-01
 9.22291E-01
 9.53810E-01
 9.65248E-01
 1.00328E+00
 1.01762E+00
 1.05027E+00
 1.03889E+00
 1.02581E+00
 1.03853E+00
 1.01625E+00
 1.02996E+00
 1.01548E+00
 1.03524E+00
 1.02857E+00
 1.05349E+00
 1.05277E+00
 1.08215E+00
 1.08629E+00
 1.12048E+00
 1.12905E+00
 1.16624E+00
 1.16737E+00
 1.06623E+00
 1.08267E+00
 1.07131E+00
 1.07503E+00
 1.06438E+00
 1.07328E+00
 1.07055E+00
 1.08569E+00
 1.08967E+00
 1.10974E+00
 1.11848E+00
 1.14269E+00
 1.15571E+00
 1.18437E+00
 1.19982E+00
 1.22945E+00
-1.89231E+00
-1.89136E+00
-1.90337E+00
-1.87109E+00
-1.88090E+00
-1.88150E+00
-1.88989E+00
-1.84727E+00
-1.82012E+00
-1.75632E+00
-1.71202E+00
-1.65481E+00
-1.63979E+00
-1.64014E+00
-1.66014E+00
-1.66065E+00
-1.84652E+00
-1.87006E+00
-1.85385E+00
-1.86162E+00
-1.85184E+00
-1.86469E+00
-1.83958E+00
-1.81757E+00
-1.76249E+00
-1.71807E+00
-1.65743E+00
-1.61842E+00
-1.58859E+00
-1.59922E+00
-1.60556E+00
-1.61569E+00
-1.73823E+00
-1.73853E+00
-1.75043E+00
-1.73821E+00
-1.74822E+00
-1.73129E+00
-1.71997E+00
-1.67464E+00
-1.63939E+00
-1.58164E+00
-1.53976E+00
-1.49332E+00
-1.47413E+00
-1.46176E+00
-1.46446E+00
-1.45600E+00
-1.52862E+00
-1.54145E+00
-1.53182E+00
-1.53947E+00
-1.52533E+00
-1.52178E+00
-1.48886E+00
-1.46385E+00
-1.41481E+00
-1.37811E+00
-1.32898E+00
-1.29760E+00
-1.26536E+00
-1.25243E+00
-1.23466E+00
-1.22965E+00
-1.24873E+00
-1.24161E+00
-1.24681E+00
-1.23542E+00
-1.23462E+00
-1.21254E+00
-1.19690E+00
-1.15965E+00
-1.13085E+00
-1.08724E+00
-1.05514E+00
-1.01649E+00
-9.91520E-01
-9.63325E-01
-9.45125E-01
-9.26735E-01
-8.91629E-01
-8.89974E-01
-8.81075E-01
-8.79941E-01
-8.65924E-01
-8.56599E-01
-8.31605E-01
-8.10848E-01
-7.77100E-01
-7.49348E-01
-7.13731E-01
-6.85474E-01
-6.53365E-01
-6.27805E-01
-6.01003E-01
-5.83192E-01
-4.97753E-01
-4.88130E-01
-4.83851E-01
-4.76165E-01
-4.69732E-01
-4.55593E-01
-4.41501E-01
-4.19175E-01
-3.97444E-01
-3.69999E-01
-3.43929E-01
-3.15001E-01
-2.87358E-01
-2.59300E-01
-2.32061E-01
-2.13530E-01
-8.88620E-02
-7.69310E-02
-7.35735E-02
-6.73388E-02
-6.20824E-02
-5.24168E-02
-4.12726E-02
-2.53629E-02
-8.13124E-03
 1.33202E-02
 3.46249E-02
 6.02558E-02
 8.40087E-02
 1.12605E-01
 1.35190E-01
 1.59571E-01
 3.04163E-01
 3.09578E-01
 3.18399E-01
 3.16479E-01
 3.23943E-01
 3.25494E-01
 3.36764E-01
 3.43632E-01
 3.60174E-01
 3.72179E-01
 3.93702E-01
 4.09942E-01
 4.35989E-01
 4.54770E-01
 4.82992E-01
 4.94965E-01
 6.40146E-01
 6.55236E-01
 6.48999E-01
 6.56240E-01
 6.50037E-01
 6.58332E-01
 6.56166E-01
 6.68344E-01
 6.71239E-01
 6.88348E-01
 6.96228E-01
 7.18306E-01
 7.30369E-01
 7.56855E-01
 7.69818E-01
 7.95302E-01
 9.08381E-01
 9.05783E-01
 9.15483E-01
 9.04170E-01
 9.11127E-01
 9.02006E-01
 9.11103E-01
 9.06383E-01
 9.19669E-01
 9.20095E-01
 9.38271E-01
 9.43533E-01
 9.66464E-01
 9.75065E-01
 1.00053E+00
 1.00445E+00
 1.06234E+00
 1.07752E+00
 1.06453E+00
 1.07220E+00
 1.05845E+00
 1.06618E+00
 1.05587E+00
 1.06673E+00
 1.06139E+00
 1.07672E+00
 1.07649E+00
 1.09654E+00
 1.10057E+00
 1.12475E+00
 1.13025E+00
 1.15446E+00
 1.11841E+00
 1.11675E+00
 1.12245E+00
 1.11181E+00
 1.11497E+00
 1.10598E+00
 1.11138E+00
 1.10700E+00
 1.11666E+00
 1.11721E+00
 1.13144E+00
 1.13659E+00
 1.15518E+00
 1.16354E+00
 1.18466E+00
 1.19014E+00
-1.80163E+00
-1.82821E+00
-1.77608E+00
-1.72646E+00
-1.59609E+00
-1.72876E+00
-1.78062E+00
-1.81384E+00
-1.78854E+00
-1.77119E+00
-1.71669E+00
-1.67258E+00
-1.60906E+00
-1.64579E+00
-1.66872E+00
-1.67091E+00
-1.77621E+00
-1.77925E+00
-1.77438E+00
-1.72433E+00
-1.71221E+00
-1.74204E+00
-1.77379E+00
-1.76343E+00
-1.75477E+00
-1.71336E+00
-1.67644E+00
-1.62194E+00
-1.59625E+00
-1.59735E+00
-1.61208E+00
-1.60695E+00
-1.65892E+00
-1.68027E+00
-1.66360E+00
-1.66587E+00
-1.65183E+00
-1.66456E+00
-1.65181E+00
-1.64733E+00
-1.61333E+00
-1.58808E+00
-1.54133E+00
-1.50875E+00
-1.47379E+00
-1.47096E+00
-1.46417E+00
-1.46562E+00
-1.46768E+00
-1.46774E+00
-1.47752E+00
-1.46550E+00
-1.46997E+00
-1.45524E+00
-1.45016E+00
-1.42146E+00
-1.40320E+00
-1.36420E+00
-1.33630E+00
-1.29681E+00
-1.27529E+00
-1.25222E+00
-1.24246E+00
-1.22742E+00
-1.18148E+00
-1.18963E+00
-1.18155E+00
-1.18493E+00
-1.17231E+00
-1.16863E+00
-1.14659E+00
-1.13283E+00
-1.10181E+00
-1.07965E+00
-1.04445E+00
-1.01981E+00
-9.88982E-01
-9.69851E-01
-9.46848E-01
-9.34182E-01
-8.34689E-01
-8.28968E-01
-8.29771E-01
-8.20976E-01
-8.18021E-01
-8.03515E-01
-7.93777E-01
-7.71757E-01
-7.54877E-01
-7.27452E-01
-7.05479E-01
-6.76635E-01
-6.53858E-01
-6.27916E-01
-6.06215E-01
-5.86325E-01
-4.38966E-01
-4.33795E-01
-4.28541E-01
-4.24415E-01
-4.16751E-01
-4.09765E-01
-3.97158E-01
-3.85008E-01
-3.67037E-01
-3.49543E-01
-3.27709E-01
-3.06312E-01
-2.83195E-01
-2.59642E-01
-2.37494E-01
-2.15437E-01
-2.99558E-02
-2.49143E-02
-1.79922E-02
-1.63667E-02
-1.02930E-02
-6.33365E-03
 2.10264E-03
 1.02097E-02
 2.30161E-02
 3.56503E-02
 5.32465E-02
 6.95242E-02
 9.12887E-02
 1.09560E-01
 1.34412E-01
 1.50192E-01
 3.58605E-01
 3.70283E-01
 3.66933E-01
 3.73365E-01
 3.69781E-01
 3.75946E-01
 3.74895E-01
 3.83661E-01
 3.86730E-01
 3.99883E-01
 4.07513E-01
 4.25610E-01
 4.37115E-01
 4.60003E-01
 4.73894E-01
 4.99555E-01
 7.05426E-01
 7.03106E-01
 7.11067E-01
 7.01276E-01
 7.06396E-01
 6.97624E-01
 7.03455E-01
 6.97857E-01
 7.06964E-01
 7.05926E-01
 7.19836E-01
 7.23601E-01
 7.42750E-01
 7.50546E-01
 7.74213E-01
 7.82060E-01
 9.63485E-01
 9.74993E-01
 9.61100E-01
 9.66123E-01
 9.51467E-01
 9.55630E-01
 9.43165E-01
 9.49224E-01
 9.40815E-01
 9.50958E-01
 9.47610E-01
 9.62886E-01
 9.64355E-01
 9.85019E-01
 9.90325E-01
 1.01533E+00
 1.13567E+00
 1.12601E+00
 1.13282E+00
 1.11430E+00
 1.11830E+00
 1.10095E+00
 1.10559E+00
 1.09167E+00
 1.09938E+00
 1.09031E+00
 1.10270E+00
 1.09878E+00
 1.11633E+00
 1.11694E+00
 1.13901E+00
 1.14057E+00
 1.17878E+00
 1.18586E+00
 1.17270E+00
 1.17269E+00
 1.15795E+00
 1.15766E+00
 1.14549E+00
 1.14764E+00
 1.13975E+00
 1.14600E+00
 1.14296E+00
 1.15395E+00
 1.15579E+00
 1.17179E+00
 1.17715E+00
 1.19771E+00
-1.74274E+00
-1.74113E+00
-1.68906E+00
-1.43083E+00
-3.44063E-05
-1.40638E+00
-1.67726E+00
-1.75035E+00
-1.78267E+00
-1.76079E+00
-1.74412E+00
-1.70089E+00
-1.66419E+00
-1.65243E+00
-1.59541E+00
-1.55567E+00
-1.69849E+00
-1.72285E+00
-1.67888E+00
-1.60586E+00
-1.45801E+00
-1.60421E+00
-1.68112E+00
-1.72999E+00
-1.72746E+00
-1.72107E+00
-1.68514E+00
-1.65062E+00
-1.60840E+00
-1.59002E+00
-1.55709E+00
-1.55235E+00
-1.59342E+00
-1.60143E+00
-1.60774E+00
-1.57782E+00
-1.56491E+00
-1.57827E+00
-1.60499E+00
-1.60063E+00
-1.60284E+00
-1.57563E+00
-1.55411E+00
-1.51353E+00
-1.48712E+00
-1.45811E+00
-1.44081E+00
-1.41440E+00
-1.38833E+00
-1.41043E+00
-1.40548E+00
-1.41240E+00
-1.40243E+00
-1.40768E+00
-1.39588E+00
-1.39561E+00
-1.37325E+00
-1.35980E+00
-1.32678E+00
-1.30332E+00
-1.26921E+00
-1.24857E+00
-1.22029E+00
-1.20587E+00
-1.11037E+00
-1.11400E+00
-1.12507E+00
-1.12022E+00
-1.12378E+00
-1.11272E+00
-1.10995E+00
-1.09148E+00
-1.08168E+00
-1.05610E+00
-1.03794E+00
-1.00756E+00
-9.85582E-01
-9.56193E-01
-9.34142E-01
-9.07728E-01
-7.54867E-01
-7.62243E-01
-7.61727E-01
-7.65477E-01
-7.59791E-01
-7.58010E-01
-7.45945E-01
-7.38619E-01
-7.20766E-01
-7.07339E-01
-6.84330E-01
-6.65186E-01
-6.39360E-01
-6.16706E-01
-5.90092E-01
-5.67741E-01
-3.59903E-01
-3.61020E-01
-3.63016E-01
-3.63152E-01
-3.62298E-01
-3.57963E-01
-3.53295E-01
-3.44079E-01
-3.34799E-01
-3.20704E-01
-3.05930E-01
-2.87401E-01
-2.67311E-01
-2.45455E-01
-2.20583E-01
-1.97683E-01
 4.92465E-02
 5.18243E-02
 4.65484E-02
 4.75437E-02
 4.43310E-02
 4.69002E-02
 4.71887E-02
 5.27590E-02
 5.73292E-02
 6.74811E-02
 7.68920E-02
 9.26989E-02
 1.06869E-01
 1.28865E-01
 1.47599E-01
 1.74698E-01
 4.43785E-01
 4.38523E-01
 4.40748E-01
 4.30606E-01
 4.31901E-01
 4.23815E-01
 4.26390E-01
 4.21674E-01
 4.27564E-01
 4.27452E-01
 4.38509E-01
 4.43742E-01
 4.61153E-01
 4.71998E-01
 4.96178E-01
 5.11241E-01
 7.81724E-01
 7.87354E-01
 7.71720E-01
 7.72323E-01
 7.56858E-01
 7.57293E-01
 7.44313E-01
 7.46706E-01
 7.37754E-01
 7.44374E-01
 7.40786E-01
 7.53390E-01
 7.55818E-01
 7.75503E-01
 7.84396E-01
 8.11809E-01
 1.05312E+00
 1.04019E+00
 1.04135E+00
 1.02015E+00
 1.01919E+00
 9.99537E-01
 9.99444E-01
 9.83195E-01
 9.86215E-01
 9.74995E-01
 9.83294E-01
 9.78156E-01
 9.93065E-01
 9.94451E-01
 1.01630E+00
 1.02284E+00
 1.21124E+00
 1.21594E+00
 1.19182E+00
 1.19062E+00
 1.16604E+00
 1.16484E+00
 1.14311E+00
 1.14409E+00
 1.12690E+00
 1.13216E+00
 1.12091E+00
 1.13209E+00
 1.12718E+00
 1.14529E+00
 1.14717E+00
 1.17327E+00
 1.26941E+00
 1.25659E+00
 1.25195E+00
 1.23059E+00
 1.22448E+00
 1.20467E+00
 1.20027E+00
 1.18430E+00
 1.18336E+00
 1.17280E+00
 1.17691E+00
 1.17216E+00
 1.18250E+00
 1.18397E+00
 1.20102E+00
 1.20826E+00
-1.70280E+00
-1.73780E+00
-1.70750E+00
-1.65195E+00
-1.51619E+00
-1.62650E+00
-1.68827E+00
-1.75393E+00
-1.76131E+00
-1.77552E+00
-1.75311E+00
-1.74005E+00
-1.72468E+00
-1.61408E+00
-1.47652E+00
-1.49309E+00
-1.66896E+00
-1.68348E+00
-1.68986E+00
-1.65238E+00
-1.61885E+00
-1.63487E+00
-1.68683E+00
-1.70451E+00
-1.72643E+00
-1.71495E+00
-1.70586E+00
-1.67571E+00
-1.63864E+00
-1.57472E+00
-1.51624E+00
-1.46171E+00
-1.53823E+00
-1.56923E+00
-1.56687E+00
-1.57207E+00
-1.55723E+00
-1.56898E+00
-1.56936E+00
-1.58732E+00
-1.57875E+00
-1.57798E+00
-1.55229E+00
-1.53059E+00
-1.49024E+00
-1.45065E+00
-1.39802E+00
-1.37175E+00
-1.33228E+00
-1.34426E+00
-1.36377E+00
-1.36192E+00
-1.36923E+00
-1.36155E+00
-1.36822E+00
-1.35753E+00
-1.35863E+00
-1.33887E+00
-1.32610E+00
-1.29472E+00
-1.26862E+00
-1.22794E+00
-1.19693E+00
-1.15720E+00
-1.03340E+00
-1.05265E+00
-1.05781E+00
-1.06972E+00
-1.06700E+00
-1.07117E+00
-1.06180E+00
-1.06169E+00
-1.04680E+00
-1.03915E+00
-1.01616E+00
-9.98059E-01
-9.66915E-01
-9.40657E-01
-9.05249E-01
-8.80737E-01
-6.75843E-01
-6.83791E-01
-6.95824E-01
-6.99667E-01
-7.05547E-01
-7.02425E-01
-7.02869E-01
-6.94077E-01
-6.89492E-01
-6.74813E-01
-6.62720E-01
-6.40937E-01
-6.20450E-01
-5.92342E-01
-5.65732E-01
-5.35573E-01
-2.73166E-01
-2.80758E-01
-2.89688E-01
-2.96247E-01
-3.00704E-01
-3.03046E-01
-3.02184E-01
-3.00414E-01
-2.94485E-01
-2.87257E-01
-2.75261E-01
-2.60634E-01
-2.41879E-01
-2.19346E-01
-1.94549E-01
-1.67347E-01
 1.40263E-01
 1.31340E-01
 1.25974E-01
 1.14394E-01
 1.10470E-01
 1.02795E-01
 1.01717E-01
 9.84416E-02
 1.01410E-01
 1.03425E-01
 1.12510E-01
 1.21064E-01
 1.37963E-01
 1.53734E-01
 1.78662E-01
 2.00135E-01
 5.29972E-01
 5.29443E-01
 5.12483E-01
 5.07746E-01
 4.91921E-01
 4.88349E-01
 4.76029E-01
 4.75224E-01
 4.67509E-01
 4.71563E-01
 4.69935E-01
 4.81045E-01
 4.86763E-01
 5.06393E-01
 5.20168E-01
 5.48668E-01
 8.78017E-01
 8.63393E-01
 8.59411E-01
 8.36664E-01
 8.31107E-01
 8.10553E-01
 8.06590E-01
 7.89987E-01
 7.89697E-01
 7.78652E-01
 7.84453E-01
 7.80523E-01
 7.94308E-01
 7.98549E-01
 8.20886E-01
 8.32580E-01
 1.13741E+00
 1.13756E+00
 1.11086E+00
 1.10406E+00
 1.07673E+00
 1.07031E+00
 1.04627E+00
 1.04252E+00
 1.02350E+00
 1.02480E+00
 1.01256E+00
 1.02108E+00
 1.01675E+00
 1.03371E+00
 1.03806E+00
 1.06471E+00
 1.31228E+00
 1.29077E+00
 1.28523E+00
 1.25337E+00
 1.24568E+00
 1.21589E+00
 1.21009E+00
 1.18481E+00
 1.18304E+00
 1.16407E+00
 1.16866E+00
 1.15730E+00
 1.16953E+00
 1.16631E+00
 1.18650E+00
 1.19084E+00
 1.35791E+00
 1.35247E+00
 1.32637E+00
 1.31373E+00
 1.28590E+00
 1.27447E+00
 1.25028E+00
 1.24229E+00
 1.22380E+00
 1.22092E+00
 1.20940E+00
 1.21334E+00
 1.20929E+00
 1.22109E+00
 1.22524E+00
 1.24704E+00
-1.69071E+00
-1.70411E+00
-1.73123E+00
-1.71552E+00
-1.70392E+00
-1.69503E+00
-1.73470E+00
-1.74011E+00
-1.76904E+00
-1.75894E+00
-1.76190E+00
-1.73333E+00
-1.69633E+00
-1.61746E+00
-1.55648E+00
-1.48621E+00
-1.63488E+00
-1.66924E+00
-1.67480E+00
-1.68434E+00
-1.66977E+00
-1.68060E+00
-1.68287E+00
-1.70851E+00
-1.70829E+00
-1.71694E+00
-1.69923E+00
-1.68021E+00
-1.63521E+00
-1.58033E+00
-1.51055E+00
-1.47584E+00
-1.50080E+00
-1.51882E+00
-1.54479E+00
-1.54577E+00
-1.55496E+00
-1.54825E+00
-1.56262E+00
-1.55917E+00
-1.57079E+00
-1.55823E+00
-1.55191E+00
-1.52127E+00
-1.49012E+00
-1.43656E+00
-1.39436E+00
-1.34228E+00
-1.26831E+00
-1.29612E+00
-1.30617E+00
-1.32429E+00
-1.32347E+00
-1.33282E+00
-1.32693E+00
-1.33531E+00
-1.32561E+00
-1.32528E+00
-1.30435E+00
-1.28743E+00
-1.25062E+00
-1.21790E+00
-1.17155E+00
-1.14298E+00
-9.64209E-01
-9.78144E-01
-9.98947E-01
-1.00631E+00
-1.01837E+00
-1.01692E+00
-1.02339E+00
-1.01685E+00
-1.01859E+00
-1.00524E+00
-9.96676E-01
-9.72227E-01
-9.50282E-01
-9.14630E-01
-8.84737E-01
-8.46977E-01
-5.91872E-01
-6.08394E-01
-6.21032E-01
-6.35122E-01
-6.41282E-01
-6.49058E-01
-6.48590E-01
-6.51719E-01
-6.45682E-01
-6.42266E-01
-6.28327E-01
-6.14772E-01
-5.90934E-01
-5.67093E-01
-5.35824E-01
-5.09279E-01
-1.85157E-01
-1.98086E-01
-2.11286E-01
-2.24631E-01
-2.34231E-01
-2.41823E-01
-2.47085E-01
-2.49272E-01
-2.49701E-01
-2.45665E-01
-2.38598E-01
-2.26261E-01
-2.09528E-01
-1.88291E-01
-1.63091E-01
-1.36432E-01
 2.28681E-01
 2.21354E-01
 2.03019E-01
 1.92694E-01
 1.76852E-01
 1.69205E-01
 1.58072E-01
 1.54140E-01
 1.48370E-01
 1.50104E-01
 1.51389E-01
 1.61383E-01
 1.71354E-01
 1.90862E-01
 2.09460E-01
 2.36900E-01
 6.25607E-01
 6.10019E-01
 6.01250E-01
 5.78291E-01
 5.68655E-01
 5.48670E-01
 5.41461E-01
 5.26117E-01
 5.23226E-01
 5.14057E-01
 5.18031E-01
 5.16921E-01
 5.29921E-01
 5.38028E-01
 5.60276E-01
 5.76397E-01
 9.63823E-01
 9.60831E-01
 9.33687E-01
 9.22973E-01
 8.95080E-01
 8.84978E-01
 8.60777E-01
 8.53864E-01
 8.35166E-01
 8.33902E-01
 8.22637E-01
 8.29506E-01
 8.27264E-01
 8.43627E-01
 8.51048E-01
 8.77934E-01
 1.23675E+00
 1.21506E+00
 1.20570E+00
 1.17216E+00
 1.15977E+00
 1.12806E+00
 1.11780E+00
 1.09097E+00
 1.08532E+00
 1.06539E+00
 1.06689E+00
 1.05559E+00
 1.06606E+00
 1.06426E+00
 1.08378E+00
 1.09035E+00
 1.39712E+00
 1.39322E+00
 1.35801E+00
 1.34498E+00
 1.30766E+00
 1.29527E+00
 1.26191E+00
 1.25324E+00
 1.22625E+00
 1.22379E+00
 1.20501E+00
 1.21068E+00
 1.20110E+00
 1.21565E+00
 1.21555E+00
 1.24058E+00
 1.45702E+00
 1.43609E+00
 1.42021E+00
 1.38627E+00
 1.36802E+00
 1.33573E+00
 1.32049E+00
 1.29384E+00
 1.28386E+00
 1.26483E+00
 1.26199E+00
 1.25150E+00
 1.25701E+00
 1.25509E+00
 1.26937E+00
 1.27632E+00
-1.63956E+00
-1.68068E+00
-1.69000E+00
-1.71658E+00
-1.70771E+00
-1.72565E+00
-1.71905E+00
-1.74569E+00
-1.73933E+00
-1.75486E+00
-1.73506E+00
-1.72486E+00
-1.67795E+00
-1.63857E+00
-1.57405E+00
-1.54613E+00
-1.59370E+00
-1.61650E+00
-1.64816E+00
-1.65487E+00
-1.66952E+00
-1.66562E+00
-1.68320E+00
-1.68262E+00
-1.69899E+00
-1.69096E+00
-1.68963E+00
-1.66160E+00
-1.63219E+00
-1.57835E+00
-1.53677E+00
-1.48548E+00
-1.43946E+00
-1.47375E+00
-1.48868E+00
-1.51262E+00
-1.51454E+00
-1.52915E+00
-1.52661E+00
-1.54187E+00
-1.53674E+00
-1.54311E+00
-1.52530E+00
-1.51143E+00
-1.47291E+00
-1.43876E+00
-1.38818E+00
-1.35910E+00
-1.20323E+00
-1.22286E+00
-1.25142E+00
-1.26226E+00
-1.28014E+00
-1.28098E+00
-1.29382E+00
-1.29059E+00
-1.29921E+00
-1.28867E+00
-1.28475E+00
-1.25975E+00
-1.23807E+00
-1.19765E+00
-1.16604E+00
-1.12357E+00
-8.81835E-01
-9.06840E-01
-9.23368E-01
-9.44551E-01
-9.52758E-01
-9.66306E-01
-9.67364E-01
-9.76428E-01
-9.71877E-01
-9.73492E-01
-9.59269E-01
-9.47909E-01
-9.20504E-01
-8.96157E-01
-8.59720E-01
-8.34139E-01
-5.06323E-01
-5.23812E-01
-5.44835E-01
-5.60252E-01
-5.75744E-01
-5.83856E-01
-5.94081E-01
-5.96265E-01
-6.01174E-01
-5.96320E-01
-5.92262E-01
-5.77140E-01
-5.61284E-01
-5.35343E-01
-5.10409E-01
-4.79361E-01
-9.57843E-02
-1.10543E-01
-1.30635E-01
-1.46856E-01
-1.62819E-01
-1.74908E-01
-1.85113E-01
-1.92785E-01
-1.97045E-01
-1.98309E-01
-1.94503E-01
-1.86213E-01
-1.72293E-01
-1.53529E-01
-1.30581E-01
-1.05398E-01
 3.22444E-01
 3.04924E-01
 2.90774E-01
 2.67954E-01
 2.54281E-01
 2.35519E-01
 2.25084E-01
 2.11550E-01
 2.05936E-01
 1.99097E-01
 2.01031E-01
 2.03096E-01
 2.14884E-01
 2.26902E-01
 2.48163E-01
 2.68102E-01
 7.12149E-01
 7.05317E-01
 6.78713E-01
 6.64610E-01
 6.37818E-01
 6.24779E-01
 6.02089E-01
 5.92598E-01
 5.75699E-01
 5.72210E-01
 5.63168E-01
 5.68362E-01
 5.68995E-01
 5.84200E-01
 5.94832E-01
 6.20339E-01
 1.06002E+00
 1.03905E+00
 1.02721E+00
 9.94314E-01
 9.79176E-01
 9.48059E-01
 9.35074E-01
 9.08921E-01
 9.00721E-01
 8.81643E-01
 8.80967E-01
 8.70996E-01
 8.79875E-01
 8.80085E-01
 8.98604E-01
 9.08219E-01
 1.31916E+00
 1.31420E+00
 1.27933E+00
 1.26330E+00
 1.22542E+00
 1.20945E+00
 1.17533E+00
 1.16308E+00
 1.13538E+00
 1.12963E+00
 1.11051E+00
 1.11361E+00
 1.10446E+00
 1.11732E+00
 1.11852E+00
 1.14287E+00
 1.49534E+00
 1.46891E+00
 1.45539E+00
 1.41366E+00
 1.39600E+00
 1.35558E+00
 1.34048E+00
 1.30566E+00
 1.29613E+00
 1.26941E+00
 1.26783E+00
 1.25074E+00
 1.25853E+00
 1.25144E+00
 1.26833E+00
 1.27049E+00
 1.54409E+00
 1.53271E+00
 1.49832E+00
 1.47569E+00
 1.43730E+00
 1.41561E+00
 1.38120E+00
 1.36415E+00
 1.33712E+00
 1.32707E+00
 1.30912E+00
 1.30764E+00
 1.29901E+00
 1.30684E+00
 1.30807E+00
 1.32751E+00
-1.58212E+00
-1.60355E+00
-1.64635E+00
-1.65531E+00
-1.68405E+00
-1.68110E+00
-1.70591E+00
-1.70101E+00
-1.72292E+00
-1.71131E+00
-1.71905E+00
-1.69052E+00
-1.67567E+00
-1.62815E+00
-1.60092E+00
-1.55020E+00
-1.52070E+00
-1.55990E+00
-1.58017E+00
-1.61029E+00
-1.61773E+00
-1.63830E+00
-1.63961E+00
-1.65894E+00
-1.65680E+00
-1.66764E+00
-1.65350E+00
-1.64520E+00
-1.61151E+00
-1.58433E+00
-1.53897E+00
-1.51386E+00
-1.37010E+00
-1.39429E+00
-1.42961E+00
-1.44443E+00
-1.46871E+00
-1.47320E+00
-1.49222E+00
-1.49244E+00
-1.50700E+00
-1.49965E+00
-1.50125E+00
-1.47862E+00
-1.46160E+00
-1.42282E+00
-1.39454E+00
-1.35238E+00
-1.11884E+00
-1.15122E+00
-1.17163E+00
-1.19959E+00
-1.21066E+00
-1.23044E+00
-1.23415E+00
-1.24948E+00
-1.24749E+00
-1.25485E+00
-1.24227E+00
-1.23522E+00
-1.20784E+00
-1.18625E+00
-1.14864E+00
-1.12553E+00
-7.96638E-01
-8.18822E-01
-8.47533E-01
-8.65489E-01
-8.87148E-01
-8.96751E-01
-9.12687E-01
-9.16163E-01
-9.26535E-01
-9.22453E-01
-9.22837E-01