# vtk DataFile Version 2.0
Output of NLACE
ASCII
DATASET UNSTRUCTURED_GRID
POINTS          121 FLOAT
 0.000000E+00  0.000000E+00  0.000000E+00
 5.000000E+00  0.000000E+00  0.000000E+00
 1.000000E+01  0.000000E+00  0.000000E+00
 1.500000E+01  0.000000E+00  0.000000E+00
 2.000000E+01  0.000000E+00  0.000000E+00
 2.500000E+01  0.000000E+00  0.000000E+00
 3.000000E+01  0.000000E+00  0.000000E+00
 3.500000E+01  0.000000E+00  0.000000E+00
 4.000000E+01  0.000000E+00  0.000000E+00
 4.500000E+01  0.000000E+00  0.000000E+00
 5.000000E+01  0.000000E+00  0.000000E+00
 0.000000E+00  5.000000E+00  0.000000E+00
 5.000000E+00  5.000000E+00  0.000000E+00
 1.000000E+01  5.000000E+00  0.000000E+00
 1.500000E+01  5.000000E+00  0.000000E+00
 2.000000E+01  5.000000E+00  0.000000E+00
 2.500000E+01  5.000000E+00  0.000000E+00
 3.000000E+01  5.000000E+00  0.000000E+00
 3.500000E+01  5.000000E+00  0.000000E+00
 4.000000E+01  5.000000E+00  0.000000E+00
 4.500000E+01  5.000000E+00  0.000000E+00
 5.000000E+01  5.000000E+00  0.000000E+00
 0.000000E+00  1.000000E+01  0.000000E+00
 5.000000E+00  1.000000E+01  0.000000E+00
 1.000000E+01  1.000000E+01  0.000000E+00
 1.500000E+01  1.000000E+01  0.000000E+00
 2.000000E+01  1.000000E+01  0.000000E+00
 2.500000E+01  1.000000E+01  0.000000E+00
 3.000000E+01  1.000000E+01  0.000000E+00
 3.500000E+01  1.000000E+01  0.000000E+00
 4.000000E+01  1.000000E+01  0.000000E+00
 4.500000E+01  1.000000E+01  0.000000E+00
 5.000000E+01  1.000000E+01  0.000000E+00
 0.000000E+00  1.500000E+01  0.000000E+00
 5.000000E+00  1.500000E+01  0.000000E+00
 1.000000E+01  1.500000E+01  0.000000E+00
 1.500000E+01  1.500000E+01  0.000000E+00
 2.000000E+01  1.500000E+01  0.000000E+00
 2.500000E+01  1.500000E+01  0.000000E+00
 3.000000E+01  1.500000E+01  0.000000E+00
 3.500000E+01  1.500000E+01  0.000000E+00
 4.000000E+01  1.500000E+01  0.000000E+00
 4.500000E+01  1.500000E+01  0.000000E+00
 5.000000E+01  1.500000E+01  0.000000E+00
 0.000000E+00  2.000000E+01  0.000000E+00
 5.000000E+00  2.000000E+01  0.000000E+00
 1.000000E+01  2.000000E+01  0.000000E+00
 1.500000E+01  2.000000E+01  0.000000E+00
 2.000000E+01  2.000000E+01  0.000000E+00
 2.500000E+01  2.000000E+01  0.000000E+00
 3.000000E+01  2.000000E+01  0.000000E+00
 3.500000E+01  2.000000E+01  0.000000E+00
 4.000000E+01  2.000000E+01  0.000000E+00
 4.500000E+01  2.000000E+01  0.000000E+00
 5.000000E+01  2.000000E+01  0.000000E+00
 0.000000E+00  2.500000E+01  0.000000E+00
 5.000000E+00  2.500000E+01  0.000000E+00
 1.000000E+01  2.500000E+01  0.000000E+00
 1.500000E+01  2.500000E+01  0.000000E+00
 2.000000E+01  2.500000E+01  0.000000E+00
 2.500000E+01  2.500000E+01  0.000000E+00
 3.000000E+01  2.500000E+01  0.000000E+00
 3.500000E+01  2.500000E+01  0.000000E+00
 4.000000E+01  2.500000E+01  0.000000E+00
 4.500000E+01  2.500000E+01  0.000000E+00
 5.000000E+01  2.500000E+01  0.000000E+00
 0.000000E+00  3.000000E+01  0.000000E+00
 5.000000E+00  3.000000E+01  0.000000E+00
 1.000000E+01  3.000000E+01  0.000000E+00
 1.500000E+01  3.000000E+01  0.000000E+00
 2.000000E+01  3.000000E+01  0.000000E+00
 2.500000E+01  3.000000E+01  0.000000E+00
 3.000000E+01  3.000000E+01  0.000000E+00
 3.500000E+01  3.000000E+01  0.000000E+00
 4.000000E+01  3.000000E+01  0.000000E+00
 4.500000E+01  3.000000E+01  0.000000E+00
 5.000000E+01  3.000000E+01  0.000000E+00
 0.000000E+00  3.500000E+01  0.000000E+00
 5.000000E+00  3.500000E+01  0.000000E+00
 1.000000E+01  3.500000E+01  0.000000E+00
 1.500000E+01  3.500000E+01  0.000000E+00
 2.000000E+01  3.500000E+01  0.000000E+00
 2.500000E+01  3.500000E+01  0.000000E+00
 3.000000E+01  3.500000E+01  0.000000E+00
 3.500000E+01  3.500000E+01  0.000000E+00
 4.000000E+01  3.500000E+01  0.000000E+00
 4.500000E+01  3.500000E+01  0.000000E+00
 5.000000E+01  3.500000E+01  0.000000E+00
 0.000000E+00  4.000000E+01  0.000000E+00
 5.000000E+00  4.000000E+01  0.000000E+00
 1.000000E+01  4.000000E+01  0.000000E+00
 1.500000E+01  4.000000E+01  0.000000E+00
 2.000000E+01  4.000000E+01  0.000000E+00
 2.500000E+01  4.000000E+01  0.000000E+00
 3.000000E+01  4.000000E+01  0.000000E+00
 3.500000E+01  4.000000E+01  0.000000E+00
 4.000000E+01  4.000000E+01  0.000000E+00
 4.500000E+01  4.000000E+01  0.000000E+00
 5.000000E+01  4.000000E+01  0.000000E+00
 0.000000E+00  4.500000E+01  0.000000E+00
 5.000000E+00  4.500000E+01  0.000000E+00
 1.000000E+01  4.500000E+01  0.000000E+00
 1.500000E+01  4.500000E+01  0.000000E+00
 2.000000E+01  4.500000E+01  0.000000E+00
 2.500000E+01  4.500000E+01  0.000000E+00
 3.000000E+01  4.500000E+01  0.000000E+00
 3.500000E+01  4.500000E+01  0.000000E+00
 4.000000E+01  4.500000E+01  0.000000E+00
 4.500000E+01  4.500000E+01  0.000000E+00
 5.000000E+01  4.500000E+01  0.000000E+00
 0.000000E+00  5.000000E+01  0.000000E+00
 5.000000E+00  5.000000E+01  0.000000E+00
 1.000000E+01  5.000000E+01  0.000000E+00
 1.500000E+01  5.000000E+01  0.000000E+00
 2.000000E+01  5.000000E+01  0.000000E+00
 2.500000E+01  5.000000E+01  0.000000E+00
 3.000000E+01  5.000000E+01  0.000000E+00
 3.500000E+01  5.000000E+01  0.000000E+00
 4.000000E+01  5.000000E+01  0.000000E+00
 4.500000E+01  5.000000E+01  0.000000E+00
 5.000000E+01  5.000000E+01  0.000000E+00
CELLS          100         500
4    0    1   12   11
4    1    2   13   12
4    2    3   14   13
4    3    4   15   14
4    4    5   16   15
4    5    6   17   16
4    6    7   18   17
4    7    8   19   18
4    8    9   20   19
4    9   10   21   20
4   11   12   23   22
4   12   13   24   23
4   13   14   25   24
4   14   15   26   25
4   15   16   27   26
4   16   17   28   27
4   17   18   29   28
4   18   19   30   29
4   19   20   31   30
4   20   21   32   31
4   22   23   34   33
4   23   24   35   34
4   24   25   36   35
4   25   26   37   36
4   26   27   38   37
4   27   28   39   38
4   28   29   40   39
4   29   30   41   40
4   30   31   42   41
4   31   32   43   42
4   33   34   45   44
4   34   35   46   45
4   35   36   47   46
4   36   37   48   47
4   37   38   49   48
4   38   39   50   49
4   39   40   51   50
4   40   41   52   51
4   41   42   53   52
4   42   43   54   53
4   44   45   56   55
4   45   46   57   56
4   46   47   58   57
4   47   48   59   58
4   48   49   60   59
4   49   50   61   60
4   50   51   62   61
4   51   52   63   62
4   52   53   64   63
4   53   54   65   64
4   55   56   67   66
4   56   57   68   67
4   57   58   69   68
4   58   59   70   69
4   59   60   71   70
4   60   61   72   71
4   61   62   73   72
4   62   63   74   73
4   63   64   75   74
4   64   65   76   75
4   66   67   78   77
4   67   68   79   78
4   68   69   80   79
4   69   70   81   80
4   70   71   82   81
4   71   72   83   82
4   72   73   84   83
4   73   74   85   84
4   74   75   86   85
4   75   76   87   86
4   77   78   89   88
4   78   79   90   89
4   79   80   91   90
4   80   81   92   91
4   81   82   93   92
4   82   83   94   93
4   83   84   95   94
4   84   85   96   95
4   85   86   97   96
4   86   87   98   97
4   88   89  100   99
4   89   90  101  100
4   90   91  102  101
4   91   92  103  102
4   92   93  104  103
4   93   94  105  104
4   94   95  106  105
4   95   96  107  106
4   96   97  108  107
4   97   98  109  108
4   99  100  111  110
4  100  101  112  111
4  101  102  113  112
4  102  103  114  113
4  103  104  115  114
4  104  105  116  115
4  105  106  117  116
4  106  107  118  117
4  107  108  119  118
4  108  109  120  119
CELL_TYPES          100
9
9
9
9
9
9
9
9
9
9
9
9
9
9
9
9
9
9
9
9
9
9
9
9
9
9
9
9
9
9
9
9
9
9
9
9
9
9
9
9
9
9
9
9
9
9
9
9
9
9
9
9
9
9
9
9
9
9
9
9
9
9
9
9
9
9
9
9
9
9
9
9
9
9
9
9
9
9
9
9
9
9
9
9
9
9
9
9
9
9
9
9
9
9
9
9
9
9
9
9
POINT_DATA          121
 SCALARS measuredDisp11 float  1                   
LOOKUP_TABLE default
 0.00000E+00
 0.00000E+00
 0.00000E+00
 0.00000E+00
 0.00000E+00
 0.00000E+00
 0.00000E+00
 0.00000E+00
 0.00000E+00
 0.00000E+00
 0.00000E+00
-7.46520E-02
-5.16080E-02
-4.08800E-02
-3.19520E-02
-1.78810E-02
 0.00000E+00
 1.78810E-02
 3.19520E-02
 4.08800E-02
 5.16080E-02
 7.46520E-02
-9.56710E-02
-7.55070E-02
-5.49760E-02
-3.52230E-02
-1.58850E-02
 0.00000E+00
 1.58850E-02
 3.52230E-02
 5.49760E-02
 7.55070E-02
 9.56710E-02
-9.32890E-02
-7.01130E-02
-4.62190E-02
-2.46420E-02
-1.01770E-02
 0.00000E+00
 1.01770E-02
 2.46420E-02
 4.62190E-02
 7.01130E-02
 9.32890E-02
-8.22750E-02
-5.58410E-02
-3.28520E-02
-1.91200E-02
-9.20700E-03
 0.00000E+00
 9.20700E-03
 1.91200E-02
 3.28520E-02
 5.58410E-02
 8.22750E-02
-7.88650E-02
-5.07280E-02
-2.97110E-02
-1.84940E-02
-9.60600E-03
-0.00000E+00
 9.60600E-03
 1.84940E-02
 2.97110E-02
 5.07280E-02
 7.88650E-02
-9.11020E-02
-6.25440E-02
-3.73010E-02
-2.22030E-02
-1.07660E-02
-0.00000E+00
 1.07660E-02
 2.22030E-02
 3.73010E-02
 6.25440E-02
 9.11020E-02
-1.17012E-01
-9.04140E-02
-6.17200E-02
-3.28300E-02
-1.40520E-02
-0.00000E+00
 1.40520E-02
 3.28300E-02
 6.17200E-02
 9.04140E-02
 1.17012E-01
-1.46654E-01
-1.22748E-01
-9.53410E-02
-6.15310E-02
-2.77230E-02
 0.00000E+00
 2.77230E-02
 6.15310E-02
 9.53410E-02
 1.22748E-01
 1.46654E-01
-1.68786E-01
-1.46355E-01
-1.19929E-01
-8.84120E-02
-4.73880E-02
 0.00000E+00
 4.73880E-02
 8.84120E-02
 1.19929E-01
 1.46355E-01
 1.68786E-01
-1.76811E-01
-1.54954E-01
-1.28349E-01
-9.47620E-02
-5.12660E-02
 0.00000E+00
 5.12660E-02
 9.47620E-02
 1.28349E-01
 1.54954E-01
 1.76811E-01
 SCALARS measuredDisp12 float  1                   
LOOKUP_TABLE default
 0.00000E+00
 0.00000E+00
 0.00000E+00
 0.00000E+00
 0.00000E+00
 0.00000E+00
 0.00000E+00
 0.00000E+00
 0.00000E+00
 0.00000E+00
 0.00000E+00
-6.09100E-02
-4.34950E-02
-4.82970E-02
-5.93710E-02
-7.23500E-02
-7.65920E-02
-7.23500E-02
-5.93710E-02
-4.82970E-02
-4.34950E-02
-6.09100E-02
-1.02498E-01
-9.56850E-02
-1.01537E-01
-1.24933E-01
-1.55317E-01
-1.59448E-01
-1.55317E-01
-1.24933E-01
-1.01537E-01
-9.56850E-02
-1.02498E-01
-1.43645E-01
-1.45603E-01
-1.58345E-01
-1.84957E-01
-1.88266E-01
-1.89962E-01
-1.88266E-01
-1.84957E-01
-1.58345E-01
-1.45603E-01
-1.43645E-01
-1.93199E-01
-1.95084E-01
-2.02886E-01
-2.11917E-01
-2.09834E-01
-2.09072E-01
-2.09834E-01
-2.11917E-01
-2.02886E-01
-1.95084E-01
-1.93199E-01
-2.50880E-01
-2.44044E-01
-2.35535E-01
-2.31580E-01
-2.29377E-01
-2.28608E-01
-2.29377E-01
-2.31580E-01
-2.35535E-01
-2.44044E-01
-2.50880E-01
-3.11360E-01
-2.93905E-01
-2.68810E-01
-2.51484E-01
-2.49145E-01
-2.48327E-01
-2.49145E-01
-2.51484E-01
-2.68810E-01
-2.93905E-01
-3.11360E-01
-3.68245E-01
-3.45470E-01
-3.15599E-01
-2.79830E-01
-2.71679E-01
-2.68227E-01
-2.71679E-01
-2.79830E-01
-3.15599E-01
-3.45470E-01
-3.68245E-01
-4.17923E-01
-3.96937E-01
-3.76145E-01
-3.44500E-01
-3.07986E-01
-3.01643E-01
-3.07986E-01
-3.44500E-01
-3.76145E-01
-3.96937E-01
-4.17923E-01
-4.60632E-01
-4.48530E-01
-4.37285E-01
-4.20730E-01
-4.02773E-01
-3.96356E-01
-4.02773E-01
-4.20730E-01
-4.37285E-01
-4.48530E-01
-4.60632E-01
-4.99785E-01
-4.99685E-01
-4.99615E-01
-4.99514E-01
-4.99416E-01
-4.99378E-01
-4.99416E-01
-4.99514E-01
-4.99615E-01
-4.99685E-01
-4.99785E-01
 SCALARS predictedDisp11 float  1                  
LOOKUP_TABLE default
 0.00000E+00
 0.00000E+00
 0.00000E+00
 0.00000E+00
 0.00000E+00
 0.00000E+00
 0.00000E+00
 0.00000E+00
 0.00000E+00
 0.00000E+00
 0.00000E+00
-6.65658E-02
-4.02671E-02
-2.62996E-02
-1.62934E-02
-7.83885E-03
 6.62860E-17
 7.83885E-03
 1.62934E-02
 2.62996E-02
 4.02671E-02
 6.65658E-02
-9.45939E-02
-7.12422E-02
-4.88242E-02
-3.07096E-02
-1.48612E-02
 1.17989E-16
 1.48612E-02
 3.07096E-02
 4.88242E-02
 7.12422E-02
 9.45939E-02
-1.11999E-01
-8.82726E-02
-6.41249E-02
-4.13465E-02
-2.02447E-02
 1.48243E-16
 2.02447E-02
 4.13465E-02
 6.41249E-02
 8.82726E-02
 1.11999E-01
-1.21741E-01
-9.78211E-02
-7.28490E-02
-4.80139E-02
-2.37765E-02
 1.56889E-16
 2.37765E-02
 4.80139E-02
 7.28490E-02
 9.78211E-02
 1.21741E-01
-1.27111E-01
-1.02780E-01
-7.74316E-02
-5.16195E-02
-2.57705E-02
 2.39632E-16
 2.57705E-02
 5.16195E-02
 7.74316E-02
 1.02780E-01
 1.27111E-01
-1.29858E-01
-1.05127E-01
-7.95433E-02
-5.33116E-02
-2.67244E-02
 3.10498E-16
 2.67244E-02
 5.33116E-02
 7.95433E-02
 1.05127E-01
 1.29858E-01
-1.31127E-01
-1.06061E-01
-8.03282E-02
-5.39411E-02
-2.70869E-02
 3.15336E-16
 2.70869E-02
 5.39411E-02
 8.03282E-02
 1.06061E-01
 1.31127E-01
-1.31628E-01
-1.06318E-01
-8.04942E-02
-5.40715E-02
-2.71664E-02
 3.28819E-16
 2.71664E-02
 5.40715E-02
 8.04942E-02
 1.06318E-01
 1.31628E-01
-1.31783E-01
-1.06328E-01
-8.04548E-02
-5.40367E-02
-2.71502E-02
 2.77656E-16
 2.71502E-02
 5.40367E-02
 8.04548E-02
 1.06328E-01
 1.31783E-01
-1.31813E-01
-1.06310E-01
-8.04222E-02
-5.40093E-02
-2.71359E-02
 2.81758E-16
 2.71359E-02
 5.40093E-02
 8.04222E-02
 1.06310E-01
 1.31813E-01
 SCALARS predictedDisp12 float  1                  
LOOKUP_TABLE default
 0.00000E+00
 0.00000E+00
 0.00000E+00
 0.00000E+00
 0.00000E+00
 0.00000E+00
 0.00000E+00
 0.00000E+00
 0.00000E+00
 0.00000E+00
 0.00000E+00
-6.40563E-02
-4.29493E-02
-4.00272E-02
-3.86583E-02
-3.81789E-02
-3.80416E-02
-3.81789E-02
-3.86583E-02
-4.00272E-02
-4.29493E-02
-6.40563E-02
-1.13802E-01
-9.55224E-02
-8.67895E-02
-8.34504E-02
-8.19473E-02
-8.15266E-02
-8.19473E-02
-8.34504E-02
-8.67895E-02
-9.55224E-02
-1.13802E-01
-1.59193E-01
-1.46552E-01
-1.37619E-01
-1.32582E-01
-1.30172E-01
-1.29443E-01
-1.30172E-01
-1.32582E-01
-1.37619E-01
-1.46552E-01
-1.59193E-01
-2.04832E-01
-1.96625E-01
-1.89239E-01
-1.84129E-01
-1.81291E-01
-1.80399E-01
-1.81291E-01
-1.84129E-01
-1.89239E-01
-1.96625E-01
-2.04832E-01
-2.51567E-01
-2.46491E-01
-2.40984E-01
-2.36612E-01
-2.33938E-01
-2.33050E-01
-2.33938E-01
-2.36612E-01
-2.40984E-01
-2.46491E-01
-2.51567E-01
-2.99555E-01
-2.96555E-01
-2.92722E-01
-2.89364E-01
-2.87170E-01
-2.86417E-01
-2.87170E-01
-2.89364E-01
-2.92722E-01
-2.96555E-01
-2.99555E-01
-3.48628E-01
-3.46949E-01
-3.44452E-01
-3.42098E-01
-3.40489E-01
-3.39923E-01
-3.40489E-01
-3.42098E-01
-3.44452E-01
-3.46949E-01
-3.48628E-01
-3.98528E-01
-3.97662E-01
-3.96186E-01
-3.94719E-01
-3.93685E-01
-3.93316E-01
-3.93685E-01
-3.94719E-01
-3.96186E-01
-3.97662E-01
-3.98528E-01
-4.48971E-01
-4.48609E-01
-4.47928E-01
-4.47228E-01
-4.46726E-01
-4.46545E-01
-4.46726E-01
-4.47228E-01
-4.47928E-01
-4.48609E-01
-4.48971E-01
-4.99680E-01
-4.99679E-01
-4.99675E-01
-4.99672E-01
-4.99669E-01
-4.99668E-01
-4.99669E-01
-4.99672E-01
-4.99675E-01
-4.99679E-01
-4.99680E-01
 SCALARS dual11 float  1                           
LOOKUP_TABLE default
 0.00000E+00
 0.00000E+00
 0.00000E+00
 0.00000E+00
 0.00000E+00
 0.00000E+00
 0.00000E+00
 0.00000E+00
 0.00000E+00
 0.00000E+00
 0.00000E+00
 9.03956E-01
 5.02357E-01
 3.89476E-01
 3.78959E-01
 4.37043E-01
 5.30384E-01
 6.16249E-01
 6.58105E-01
 6.45833E-01
 6.16971E-01
 6.28943E-01
 2.22960E+00
 1.95705E+00
 1.74604E+00
 1.56828E+00
 1.38055E+00
 1.16588E+00
 9.48149E-01
 7.61734E-01
 6.25309E-01
 5.71804E-01
 5.67204E-01
 4.08889E+00
 3.95382E+00
 3.65399E+00
 3.19565E+00
 2.59024E+00
 1.89055E+00
 1.19305E+00
 6.03253E-01
 2.01066E-01
 2.04391E-02
 6.86389E-02
 5.82689E+00
 5.83555E+00
 5.43320E+00
 4.70672E+00
 3.74830E+00
 2.67593E+00
 1.60672E+00
 6.62559E-01
-2.83587E-02
-3.65162E-01
-2.64522E-01
 6.78952E+00
 6.90271E+00
 6.49500E+00
 5.70241E+00
 4.65528E+00
 3.49162E+00
 2.32852E+00
 1.28317E+00
 4.93652E-01
 8.96465E-02
 2.06634E-01
 6.64669E+00
 6.81291E+00
 6.56533E+00
 6.00424E+00
 5.21446E+00
 4.30870E+00
 3.40038E+00
 2.59906E+00
 2.00788E+00
 1.70246E+00
 1.78399E+00
 5.56006E+00
 5.71939E+00
 5.73875E+00
 5.64214E+00
 5.41500E+00
 5.09894E+00
 4.77970E+00
 4.53544E+00
 4.38607E+00
 4.29314E+00
 4.27750E+00
 4.12239E+00
 4.23467E+00
 4.50560E+00
 4.89566E+00
 5.35585E+00
 5.83378E+00
 6.31144E+00
 6.76118E+00
 7.09954E+00
 7.22219E+00
 7.06748E+00
 3.07969E+00
 3.16064E+00
 3.58555E+00
 4.31640E+00
 5.31916E+00
 6.48573E+00
 7.65665E+00
 8.66296E+00
 9.36512E+00
 9.65772E+00
 9.36739E+00
 2.99441E+00
 3.06998E+00
 3.54147E+00
 4.39944E+00
 5.60582E+00
 7.03361E+00
 8.46805E+00
 9.68569E+00
 1.05298E+01
 1.08982E+01
 1.05459E+01
 SCALARS dual12 float  1                           
LOOKUP_TABLE default
 0.00000E+00
 0.00000E+00
 0.00000E+00
 0.00000E+00
 0.00000E+00
 0.00000E+00
 0.00000E+00
 0.00000E+00
 0.00000E+00
 0.00000E+00
 0.00000E+00
 1.07786E+00
 3.34410E-01
-6.36003E-02
-3.80749E-01
-6.14265E-01
-7.12034E-01
-6.74404E-01
-5.20776E-01
-3.35528E-01
-1.67765E-01
-1.76290E-01
 1.94682E+00
 7.24896E-01
-2.81950E-02
-5.89560E-01
-9.81000E-01
-1.14009E+00
-1.09449E+00
-8.63348E-01
-5.72362E-01
-3.45788E-01
-1.32270E-01
 2.33591E+00
 1.00144E+00
 1.91794E-01
-3.90834E-01
-7.42382E-01
-8.98338E-01
-9.05976E-01
-7.88644E-01
-6.03807E-01
-4.82157E-01
-2.70728E-01
 2.13048E+00
 1.16098E+00
 6.27599E-01
 2.84712E-01
 9.41158E-02
-1.74263E-02
-1.07209E-01
-2.04278E-01
-3.33922E-01
-5.71605E-01
-7.85035E-01
 1.44382E+00
 1.20660E+00
 1.18917E+00
 1.23135E+00
 1.25311E+00
 1.20337E+00
 1.03622E+00
 7.06654E-01
 1.66313E-01
-6.13319E-01
-1.57804E+00
 5.83973E-01
 1.13048E+00
 1.64805E+00
 2.09073E+00
 2.33964E+00
 2.36486E+00
 2.13401E+00
 1.59263E+00
 6.73294E-01
-6.16687E-01
-2.34598E+00
-9.55023E-02
 9.35654E-01
 1.77105E+00
 2.49067E+00
 2.93985E+00
 3.04428E+00
 2.76959E+00
 2.07627E+00
 9.48696E-01
-5.78357E-01
-2.72926E+00
-3.61905E-01
 6.54959E-01
 1.46926E+00
 2.20127E+00
 2.72500E+00
 2.87387E+00
 2.60630E+00
 1.91081E+00
 8.85497E-01
-4.66200E-01
-2.47363E+00
-2.32119E-01
 3.27385E-01
 8.28428E-01
 1.28379E+00
 1.63013E+00
 1.74032E+00
 1.56991E+00
 1.13619E+00
 5.28902E-01
-2.58360E-01
-1.52813E+00
-1.69327E-03
 1.51088E-03
 4.36889E-03
 6.95877E-03
 8.89308E-03
 9.45419E-03
 8.33257E-03
 5.77807E-03
 1.84398E-03
-1.70052E-03
-1.36694E-02
 SCALARS NLP float  1                              
LOOKUP_TABLE default
 2.00000E+00
 2.00000E+00
 2.00000E+00
 2.00000E+00
 2.00000E+00
 2.00000E+00
 2.00000E+00
 2.00000E+00
 2.00000E+00
 2.00000E+00
 2.00000E+00
 2.00000E+00
 2.00000E+00
 2.00000E+00
 2.00000E+00
 2.00000E+00
 2.00000E+00
 2.00000E+00
 2.00000E+00
 2.00000E+00
 2.00000E+00
 2.00000E+00
 2.00000E+00
 2.00000E+00
 2.00000E+00
 2.00000E+00
 2.00000E+00
 2.00000E+00
 2.00000E+00
 2.00000E+00
 2.00000E+00
 2.00000E+00
 2.00000E+00
 2.00000E+00
 2.00000E+00
 2.00000E+00
 2.00000E+00
 2.00000E+00
 2.00000E+00
 2.00000E+00
 2.00000E+00
 2.00000E+00
 2.00000E+00
 2.00000E+00
 2.00000E+00
 2.00000E+00
 2.00000E+00
 2.00000E+00
 2.00000E+00
 2.00000E+00
 2.00000E+00
 2.00000E+00
 2.00000E+00
 2.00000E+00
 2.00000E+00
 2.00000E+00
 2.00000E+00
 2.00000E+00
 2.00000E+00
 2.00000E+00
 2.00000E+00
 2.00000E+00
 2.00000E+00
 2.00000E+00
 2.00000E+00
 2.00000E+00
 2.00000E+00
 2.00000E+00
 2.00000E+00
 2.00000E+00
 2.00000E+00
 2.00000E+00
 2.00000E+00
 2.00000E+00
 2.00000E+00
 2.00000E+00
 2.00000E+00
 2.00000E+00
 2.00000E+00
 2.00000E+00
 2.00000E+00
 2.00000E+00
 2.00000E+00
 2.00000E+00
 2.00000E+00
 2.00000E+00
 2.00000E+00
 2.00000E+00
 2.00000E+00
 2.00000E+00
 2.00000E+00
 2.00000E+00
 2.00000E+00
 2.00000E+00
 2.00000E+00
 2.00000E+00
 2.00000E+00
 2.00000E+00
 2.00000E+00
 2.00000E+00
 2.00000E+00
 2.00000E+00
 2.00000E+00
 2.00000E+00
 2.00000E+00
 2.00000E+00
 2.00000E+00
 2.00000E+00
 2.00000E+00
 2.00000E+00
 2.00000E+00
 2.00000E+00
 2.00000E+00
 2.00000E+00
 2.00000E+00
 2.00000E+00
 2.00000E+00
 2.00000E+00
 2.00000E+00
 2.00000E+00
 2.00000E+00
 SCALARS SM float  1                               
LOOKUP_TABLE default
 1.05000E+00
 1.05000E+00
 1.05000E+00
 1.05000E+00
 1.05000E+00
 1.05000E+00
 1.05000E+00
 1.05000E+00
 1.05000E+00
 1.05000E+00
 1.05000E+00
 1.05000E+00
 1.05000E+00
 1.05000E+00
 1.05000E+00
 1.05000E+00
 1.05000E+00
 1.05000E+00
 1.05000E+00
 1.05000E+00
 1.05000E+00
 1.05000E+00
 1.05000E+00
 1.05000E+00
 1.05000E+00
 1.05000E+00
 1.05000E+00
 1.05000E+00
 1.05000E+00
 1.05000E+00
 1.05000E+00
 1.05000E+00
 1.05000E+00
 1.05000E+00
 1.05000E+00
 1.05000E+00
 1.05000E+00
 1.05000E+00
 1.05000E+00
 1.05000E+00
 1.05000E+00
 1.05000E+00
 1.05000E+00
 1.05000E+00
 1.05000E+00
 1.05000E+00
 1.05000E+00
 1.05000E+00
 1.05000E+00
 1.05000E+00
 1.05000E+00
 1.05000E+00
 1.05000E+00
 1.05000E+00
 1.05000E+00
 1.05000E+00
 1.05000E+00
 1.05000E+00
 1.05000E+00
 1.05000E+00
 1.05000E+00
 1.05000E+00
 1.05000E+00
 1.05000E+00
 1.05000E+00
 1.05000E+00
 1.05000E+00
 1.05000E+00
 1.05000E+00
 1.05000E+00
 1.05000E+00
 1.05000E+00
 1.05000E+00
 1.05000E+00
 1.05000E+00
 1.05000E+00
 1.05000E+00
 1.05000E+00
 1.05000E+00
 1.05000E+00
 1.05000E+00
 1.05000E+00
 1.05000E+00
 1.05000E+00
 1.05000E+00
 1.05000E+00
 1.05000E+00
 1.05000E+00
 1.05000E+00
 1.05000E+00
 1.05000E+00
 1.05000E+00
 1.05000E+00
 1.05000E+00
 1.05000E+00
 1.05000E+00
 1.05000E+00
 1.05000E+00
 1.05000E+00
 1.05000E+00
 1.05000E+00
 1.05000E+00
 1.05000E+00
 1.05000E+00
 1.05000E+00
 1.05000E+00
 1.05000E+00
 1.05000E+00
 1.05000E+00
 1.05000E+00
 1.05000E+00
 1.05000E+00
 1.05000E+00
 1.05000E+00
 1.05000E+00
 1.05000E+00
 1.05000E+00
 1.05000E+00
 1.05000E+00
 1.05000E+00
 1.05000E+00
 SCALARS property3 float  1                        
LOOKUP_TABLE default
 0.00000E+00
 0.00000E+00
 0.00000E+00
 0.00000E+00
 0.00000E+00
 0.00000E+00
 0.00000E+00
 0.00000E+00
 0.00000E+00
 0.00000E+00
 0.00000E+00
 0.00000E+00
 0.00000E+00
 0.00000E+00
 0.00000E+00
 0.00000E+00
 0.00000E+00
 0.00000E+00
 0.00000E+00
 0.00000E+00
 0.00000E+00
 0.00000E+00
 0.00000E+00
 0.00000E+00
 0.00000E+00
 0.00000E+00
 0.00000E+00
 0.00000E+00
 0.00000E+00
 0.00000E+00
 0.00000E+00
 0.00000E+00
 0.00000E+00
 0.00000E+00
 0.00000E+00
 0.00000E+00
 0.00000E+00
 0.00000E+00
 0.00000E+00
 0.00000E+00
 0.00000E+00
 0.00000E+00
 0.00000E+00
 0.00000E+00
 0.00000E+00
 0.00000E+00
 0.00000E+00
 0.00000E+00
 0.00000E+00
 0.00000E+00
 0.00000E+00
 0.00000E+00
 0.00000E+00
 0.00000E+00
 0.00000E+00
 0.00000E+00
 0.00000E+00
 0.00000E+00
 0.00000E+00
 0.00000E+00
 0.00000E+00
 0.00000E+00
 0.00000E+00
 0.00000E+00
 0.00000E+00
 0.00000E+00
 0.00000E+00
 0.00000E+00
 0.00000E+00
 0.00000E+00
 0.00000E+00
 0.00000E+00
 0.00000E+00
 0.00000E+00
 0.00000E+00
 0.00000E+00
 0.00000E+00
 0.00000E+00
 0.00000E+00
 0.00000E+00
 0.00000E+00
 0.00000E+00
 0.00000E+00
 0.00000E+00
 0.00000E+00
 0.00000E+00
 0.00000E+00
 0.00000E+00
 0.00000E+00
 0.00000E+00
 0.00000E+00
 0.00000E+00
 0.00000E+00
 0.00000E+00
 0.00000E+00
 0.00000E+00
 0.00000E+00
 0.00000E+00
 0.00000E+00
 0.00000E+00
 0.00000E+00
 0.00000E+00
 0.00000E+00
 0.00000E+00
 0.00000E+00
 0.00000E+00
 0.00000E+00
 0.00000E+00
 0.00000E+00
 0.00000E+00
 0.00000E+00
 0.00000E+00
 0.00000E+00
 0.00000E+00
 0.00000E+00
 0.00000E+00
 0.00000E+00
 0.00000E+00
 0.00000E+00
 0.00000E+00
 0.00000E+00
 SCALARS property4 float  1                        
LOOKUP_TABLE default
 0.00000E+00
 0.00000E+00
 0.00000E+00
 0.00000E+00
 0.00000E+00
 0.00000E+00
 0.00000E+00
 0.00000E+00
 0.00000E+00
 0.00000E+00
 0.00000E+00
 0.00000E+00
 0.00000E+00
 0.00000E+00
 0.00000E+00
 0.00000E+00
 0.00000E+00
 0.00000E+00
 0.00000E+00
 0.00000E+00
 0.00000E+00
 0.00000E+00
 0.00000E+00
 0.00000E+00
 0.00000E+00
 0.00000E+00
 0.00000E+00
 0.00000E+00
 0.00000E+00
 0.00000E+00
 0.00000E+00
 0.00000E+00
 0.00000E+00
 0.00000E+00
 0.00000E+00
 0.00000E+00
 0.00000E+00
 0.00000E+00
 0.00000E+00
 0.00000E+00
 0.00000E+00
 0.00000E+00
 0.00000E+00
 0.00000E+00
 0.00000E+00
 0.00000E+00
 0.00000E+00
 0.00000E+00
 0.00000E+00
 0.00000E+00
 0.00000E+00
 0.00000E+00
 0.00000E+00
 0.00000E+00
 0.00000E+00
 0.00000E+00
 0.00000E+00
 0.00000E+00
 0.00000E+00
 0.00000E+00
 0.00000E+00
 0.00000E+00
 0.00000E+00
 0.00000E+00
 0.00000E+00
 0.00000E+00
 0.00000E+00
 0.00000E+00
 0.00000E+00
 0.00000E+00
 0.00000E+00
 0.00000E+00
 0.00000E+00
 0.00000E+00
 0.00000E+00
 0.00000E+00
 0.00000E+00
 0.00000E+00
 0.00000E+00
 0.00000E+00
 0.00000E+00
 0.00000E+00
 0.00000E+00
 0.00000E+00
 0.00000E+00
 0.00000E+00
 0.00000E+00
 0.00000E+00
 0.00000E+00
 0.00000E+00
 0.00000E+00
 0.00000E+00
 0.00000E+00
 0.00000E+00
 0.00000E+00
 0.00000E+00
 0.00000E+00
 0.00000E+00
 0.00000E+00
 0.00000E+00
 0.00000E+00
 0.00000E+00
 0.00000E+00
 0.00000E+00
 0.00000E+00
 0.00000E+00
 0.00000E+00
 0.00000E+00
 0.00000E+00
 0.00000E+00
-5.00000E-01
-5.00000E-01
-5.00000E-01
-5.00000E-01
-5.00000E-01
-5.00000E-01
-5.00000E-01
-5.00000E-01
-5.00000E-01
-5.00000E-01
-5.00000E-01
 SCALARS gradient1 float  1                        
LOOKUP_TABLE default
 0.00000E+00
 0.00000E+00
 0.00000E+00
 0.00000E+00
 0.00000E+00
 0.00000E+00
 0.00000E+00
 0.00000E+00
 0.00000E+00
 0.00000E+00
 0.00000E+00
 0.00000E+00
 0.00000E+00
 0.00000E+00
 0.00000E+00
 0.00000E+00
 0.00000E+00
 0.00000E+00
 0.00000E+00
 0.00000E+00
 0.00000E+00
 0.00000E+00
 0.00000E+00
 0.00000E+00
 0.00000E+00
 0.00000E+00
 0.00000E+00
 0.00000E+00
 0.00000E+00
 0.00000E+00
 0.00000E+00
 0.00000E+00
 0.00000E+00
 0.00000E+00
 0.00000E+00
 0.00000E+00
 0.00000E+00
 0.00000E+00
 0.00000E+00
 0.00000E+00
 0.00000E+00
 0.00000E+00
 0.00000E+00
 0.00000E+00
 0.00000E+00
 0.00000E+00
 0.00000E+00
 0.00000E+00
 0.00000E+00
 0.00000E+00
 0.00000E+00
 0.00000E+00
 0.00000E+00
 0.00000E+00
 0.00000E+00
 0.00000E+00
 0.00000E+00
 0.00000E+00
 0.00000E+00
 0.00000E+00
 0.00000E+00
 0.00000E+00
 0.00000E+00
 0.00000E+00
 0.00000E+00
 0.00000E+00
 0.00000E+00
 0.00000E+00
 0.00000E+00
 0.00000E+00
 0.00000E+00
 0.00000E+00
 0.00000E+00
 0.00000E+00
 0.00000E+00
 0.00000E+00
 0.00000E+00
 0.00000E+00
 0.00000E+00
 0.00000E+00
 0.00000E+00
 0.00000E+00
 0.00000E+00
 0.00000E+00
 0.00000E+00
 0.00000E+00
 0.00000E+00
 0.00000E+00
 0.00000E+00
 0.00000E+00
 0.00000E+00
 0.00000E+00
 0.00000E+00
 0.00000E+00
 0.00000E+00
 0.00000E+00
 0.00000E+00
 0.00000E+00
 0.00000E+00
 0.00000E+00
 0.00000E+00
 0.00000E+00
 0.00000E+00
 0.00000E+00
 0.00000E+00
 0.00000E+00
 0.00000E+00
 0.00000E+00
 0.00000E+00
 0.00000E+00
 0.00000E+00
 0.00000E+00
 0.00000E+00
 0.00000E+00
 0.00000E+00
 0.00000E+00
 0.00000E+00
 0.00000E+00
 0.00000E+00
 0.00000E+00
 0.00000E+00
 SCALARS gradient2 float  1                        
LOOKUP_TABLE default
-4.94997E-02
-4.07293E-02
 3.88774E-04
 2.46422E-02
 4.14232E-02
 4.99005E-02
 5.02445E-02
 4.39797E-02
 3.51953E-02
 2.91132E-02
 1.69806E-02
-6.98712E-02
-7.17385E-02
-9.19900E-03
 3.45209E-02
 6.42855E-02
 7.94820E-02
 8.14199E-02
 7.18077E-02
 5.66514E-02
 4.07463E-02
 1.62943E-02
-4.02432E-02
-6.00614E-02
-3.09578E-02
-6.24471E-03
 9.88729E-03
 1.95920E-02
 2.49806E-02
 2.65392E-02
 2.48791E-02
 2.22607E-02
 6.23202E-03
-9.80317E-03
-3.46181E-02
-5.42241E-02
-6.78950E-02
-7.59119E-02
-7.52300E-02
-6.48117E-02
-4.43425E-02
-1.64885E-02
 1.57852E-02
 1.77924E-02
 1.86313E-02
-1.19611E-02
-7.46830E-02
-1.22035E-01
-1.48985E-01
-1.55689E-01
-1.43321E-01
-1.10345E-01
-5.65680E-02
 1.23530E-02
 3.22613E-02
 3.74509E-02
 7.69753E-03
-7.48712E-02
-1.36429E-01
-1.72362E-01
-1.83734E-01
-1.72440E-01
-1.36775E-01
-7.53685E-02
 7.75019E-03
 3.77248E-02
 4.07947E-02
 2.48526E-02
-4.30415E-02
-9.58697E-02
-1.30488E-01
-1.43700E-01
-1.35531E-01
-1.06859E-01
-6.07805E-02
 1.00879E-03
 2.72854E-02
 2.92153E-02
 3.74935E-02
 1.32703E-02
-8.75946E-03
-2.87266E-02
-3.88973E-02
-3.72202E-02
-2.78299E-02
-1.95421E-02
-1.03991E-02
 8.36660E-04
 1.09779E-02
 4.43435E-02
 7.19374E-02
 9.30497E-02
 1.03136E-01
 1.03006E-01
 9.29814E-02
 6.94228E-02
 2.81456E-02
-2.72159E-02
-3.45643E-02
-8.31238E-04
 4.76165E-02
 1.12981E-01
 1.70553E-01
 2.11641E-01
 2.23604E-01
 2.01234E-01
 1.45656E-01
 6.41250E-02
-4.39726E-02
-6.83353E-02
-2.75114E-02
-4.31586E-02
-3.89424E-03
 3.18439E-02
 5.85346E-02
 6.71341E-02
 5.34244E-02
 1.94606E-02
-2.87319E-02
-9.31345E-02
-8.34516E-02
 SCALARS gradient3 float  1                        
LOOKUP_TABLE default
 0.00000E+00
 0.00000E+00
 0.00000E+00
 0.00000E+00
 0.00000E+00
 0.00000E+00
 0.00000E+00
 0.00000E+00
 0.00000E+00
 0.00000E+00
 0.00000E+00
 0.00000E+00
 0.00000E+00
 0.00000E+00
 0.00000E+00
 0.00000E+00
 0.00000E+00
 0.00000E+00
 0.00000E+00
 0.00000E+00
 0.00000E+00
 0.00000E+00
 0.00000E+00
 0.00000E+00
 0.00000E+00
 0.00000E+00
 0.00000E+00
 0.00000E+00
 0.00000E+00
 0.00000E+00
 0.00000E+00
 0.00000E+00
 0.00000E+00
 0.00000E+00
 0.00000E+00
 0.00000E+00
 0.00000E+00
 0.00000E+00
 0.00000E+00
 0.00000E+00
 0.00000E+00
 0.00000E+00
 0.00000E+00
 0.00000E+00
 0.00000E+00
 0.00000E+00
 0.00000E+00
 0.00000E+00
 0.00000E+00
 0.00000E+00
 0.00000E+00
 0.00000E+00
 0.00000E+00
 0.00000E+00
 0.00000E+00
 0.00000E+00
 0.00000E+00
 0.00000E+00
 0.00000E+00
 0.00000E+00
 0.00000E+00
 0.00000E+00
 0.00000E+00
 0.00000E+00
 0.00000E+00
 0.00000E+00
 0.00000E+00
 0.00000E+00
 0.00000E+00
 0.00000E+00
 0.00000E+00
 0.00000E+00
 0.00000E+00
 0.00000E+00
 0.00000E+00
 0.00000E+00
 0.00000E+00
 0.00000E+00
 0.00000E+00
 0.00000E+00
 0.00000E+00
 0.00000E+00
 0.00000E+00
 0.00000E+00
 0.00000E+00
 0.00000E+00
 0.00000E+00
 0.00000E+00
 0.00000E+00
 0.00000E+00
 0.00000E+00
 0.00000E+00
 0.00000E+00
 0.00000E+00
 0.00000E+00
 0.00000E+00
 0.00000E+00
 0.00000E+00
 0.00000E+00
 0.00000E+00
 0.00000E+00
 0.00000E+00
 0.00000E+00
 0.00000E+00
 0.00000E+00
 0.00000E+00
 0.00000E+00
 0.00000E+00
 0.00000E+00
 0.00000E+00
 0.00000E+00
 0.00000E+00
 0.00000E+00
 0.00000E+00
 0.00000E+00
 0.00000E+00
 0.00000E+00
 0.00000E+00
 0.00000E+00
 0.00000E+00
 0.00000E+00
 SCALARS gradient4 float  1                        
LOOKUP_TABLE default
 0.00000E+00
 0.00000E+00
 0.00000E+00
 0.00000E+00
 0.00000E+00
 0.00000E+00
 0.00000E+00
 0.00000E+00
 0.00000E+00
 0.00000E+00
 0.00000E+00
 0.00000E+00
 0.00000E+00
 0.00000E+00
 0.00000E+00
 0.00000E+00
 0.00000E+00
 0.00000E+00
 0.00000E+00
 0.00000E+00
 0.00000E+00
 0.00000E+00
 0.00000E+00
 0.00000E+00
 0.00000E+00
 0.00000E+00
 0.00000E+00
 0.00000E+00
 0.00000E+00
 0.00000E+00
 0.00000E+00
 0.00000E+00
 0.00000E+00
 0.00000E+00
 0.00000E+00
 0.00000E+00
 0.00000E+00
 0.00000E+00
 0.00000E+00
 0.00000E+00
 0.00000E+00
 0.00000E+00
 0.00000E+00
 0.00000E+00
 0.00000E+00
 0.00000E+00
 0.00000E+00
 0.00000E+00
 0.00000E+00
 0.00000E+00
 0.00000E+00
 0.00000E+00
 0.00000E+00
 0.00000E+00
 0.00000E+00
 0.00000E+00
 0.00000E+00
 0.00000E+00
 0.00000E+00
 0.00000E+00
 0.00000E+00
 0.00000E+00
 0.00000E+00
 0.00000E+00
 0.00000E+00
 0.00000E+00