# vtk DataFile Version 2.0
Output of NLACE
ASCII
DATASET UNSTRUCTURED_GRID
POINTS           88 FLOAT
 6.000000E-01  2.500000E-01  0.000000E+00
 6.500000E-01  2.500000E-01  0.000000E+00
 7.000000E-01  2.500000E-01  0.000000E+00
 7.500000E-01  2.500000E-01  0.000000E+00
 8.000000E-01  2.500000E-01  0.000000E+00
 8.500000E-01  2.500000E-01  0.000000E+00
 9.000000E-01  2.500000E-01  0.000000E+00
 9.500000E-01  2.500000E-01  0.000000E+00
 6.000000E-01  3.000000E-01  0.000000E+00
 6.500000E-01  3.000000E-01  0.000000E+00
 7.000000E-01  3.000000E-01  0.000000E+00
 7.500000E-01  3.000000E-01  0.000000E+00
 8.000000E-01  3.000000E-01  0.000000E+00
 8.500000E-01  3.000000E-01  0.000000E+00
 9.000000E-01  3.000000E-01  0.000000E+00
 9.500000E-01  3.000000E-01  0.000000E+00
 6.000000E-01  3.500000E-01  0.000000E+00
 6.500000E-01  3.500000E-01  0.000000E+00
 7.000000E-01  3.500000E-01  0.000000E+00
 7.500000E-01  3.500000E-01  0.000000E+00
 8.000000E-01  3.500000E-01  0.000000E+00
 8.500000E-01  3.500000E-01  0.000000E+00
 9.000000E-01  3.500000E-01  0.000000E+00
 9.500000E-01  3.500000E-01  0.000000E+00
 6.000000E-01  4.000000E-01  0.000000E+00
 6.500000E-01  4.000000E-01  0.000000E+00
 7.000000E-01  4.000000E-01  0.000000E+00
 7.500000E-01  4.000000E-01  0.000000E+00
 8.000000E-01  4.000000E-01  0.000000E+00
 8.500000E-01  4.000000E-01  0.000000E+00
 9.000000E-01  4.000000E-01  0.000000E+00
 9.500000E-01  4.000000E-01  0.000000E+00
 6.000000E-01  4.500000E-01  0.000000E+00
 6.500000E-01  4.500000E-01  0.000000E+00
 7.000000E-01  4.500000E-01  0.000000E+00
 7.500000E-01  4.500000E-01  0.000000E+00
 8.000000E-01  4.500000E-01  0.000000E+00
 8.500000E-01  4.500000E-01  0.000000E+00
 9.000000E-01  4.500000E-01  0.000000E+00
 9.500000E-01  4.500000E-01  0.000000E+00
 6.000000E-01  5.000000E-01  0.000000E+00
 6.500000E-01  5.000000E-01  0.000000E+00
 7.000000E-01  5.000000E-01  0.000000E+00
 7.500000E-01  5.000000E-01  0.000000E+00
 8.000000E-01  5.000000E-01  0.000000E+00
 8.500000E-01  5.000000E-01  0.000000E+00
 9.000000E-01  5.000000E-01  0.000000E+00
 9.500000E-01  5.000000E-01  0.000000E+00
 6.000000E-01  5.500000E-01  0.000000E+00
 6.500000E-01  5.500000E-01  0.000000E+00
 7.000000E-01  5.500000E-01  0.000000E+00
 7.500000E-01  5.500000E-01  0.000000E+00
 8.000000E-01  5.500000E-01  0.000000E+00
 8.500000E-01  5.500000E-01  0.000000E+00
 9.000000E-01  5.500000E-01  0.000000E+00
 9.500000E-01  5.500000E-01  0.000000E+00
 6.000000E-01  6.000000E-01  0.000000E+00
 6.500000E-01  6.000000E-01  0.000000E+00
 7.000000E-01  6.000000E-01  0.000000E+00
 7.500000E-01  6.000000E-01  0.000000E+00
 8.000000E-01  6.000000E-01  0.000000E+00
 8.500000E-01  6.000000E-01  0.000000E+00
 9.000000E-01  6.000000E-01  0.000000E+00
 9.500000E-01  6.000000E-01  0.000000E+00
 6.000000E-01  6.500000E-01  0.000000E+00
 6.500000E-01  6.500000E-01  0.000000E+00
 7.000000E-01  6.500000E-01  0.000000E+00
 7.500000E-01  6.500000E-01  0.000000E+00
 8.000000E-01  6.500000E-01  0.000000E+00
 8.500000E-01  6.500000E-01  0.000000E+00
 9.000000E-01  6.500000E-01  0.000000E+00
 9.500000E-01  6.500000E-01  0.000000E+00
 6.000000E-01  7.000000E-01  0.000000E+00
 6.500000E-01  7.000000E-01  0.000000E+00
 7.000000E-01  7.000000E-01  0.000000E+00
 7.500000E-01  7.000000E-01  0.000000E+00
 8.000000E-01  7.000000E-01  0.000000E+00
 8.500000E-01  7.000000E-01  0.000000E+00
 9.000000E-01  7.000000E-01  0.000000E+00
 9.500000E-01  7.000000E-01  0.000000E+00
 6.000000E-01  7.500000E-01  0.000000E+00
 6.500000E-01  7.500000E-01  0.000000E+00
 7.000000E-01  7.500000E-01  0.000000E+00
 7.500000E-01  7.500000E-01  0.000000E+00
 8.000000E-01  7.500000E-01  0.000000E+00
 8.500000E-01  7.500000E-01  0.000000E+00
 9.000000E-01  7.500000E-01  0.000000E+00
 9.500000E-01  7.500000E-01  0.000000E+00
CELLS          140         560
           3           0           1           8
           3           1           9           8
           3           1           2           9
           3           2          10           9
           3           2           3          10
           3           3          11          10
           3           3           4          11
           3           4          12          11
           3           4           5          12
           3           5          13          12
           3           5           6          13
           3           6          14          13
           3           6           7          14
           3           7          15          14
           3           8           9          16
           3           9          17          16
           3           9          10          17
           3          10          18          17
           3          10          11          18
           3          11          19          18
           3          11          12          19
           3          12          20          19
           3          12          13          20
           3          13          21          20
           3          13          14          21
           3          14          22          21
           3          14          15          22
           3          15          23          22
           3          16          17          24
           3          17          25          24
           3          17          18          25
           3          18          26          25
           3          18          19          26
           3          19          27          26
           3          19          20          27
           3          20          28          27
           3          20          21          28
           3          21          29          28
           3          21          22          29
           3          22          30          29
           3          22          23          30
           3          23          31          30
           3          24          25          32
           3          25          33          32
           3          25          26          33
           3          26          34          33
           3          26          27          34
           3          27          35          34
           3          27          28          35
           3          28          36          35
           3          28          29          36
           3          29          37          36
           3          29          30          37
           3          30          38          37
           3          30          31          38
           3          31          39          38
           3          32          33          40
           3          33          41          40
           3          33          34          41
           3          34          42          41
           3          34          35          42
           3          35          43          42
           3          35          36          43
           3          36          44          43
           3          36          37          44
           3          37          45          44
           3          37          38          45
           3          38          46          45
           3          38          39          46
           3          39          47          46
           3          40          41          48
           3          41          49          48
           3          41          42          49
           3          42          50          49
           3          42          43          50
           3          43          51          50
           3          43          44          51
           3          44          52          51
           3          44          45          52
           3          45          53          52
           3          45          46          53
           3          46          54          53
           3          46          47          54
           3          47          55          54
           3          48          49          56
           3          49          57          56
           3          49          50          57
           3          50          58          57
           3          50          51          58
           3          51          59          58
           3          51          52          59
           3          52          60          59
           3          52          53          60
           3          53          61          60
           3          53          54          61
           3          54          62          61
           3          54          55          62
           3          55          63          62
           3          56          57          64
           3          57          65          64
           3          57          58          65
           3          58          66          65
           3          58          59          66
           3          59          67          66
           3          59          60          67
           3          60          68          67
           3          60          61          68
           3          61          69          68
           3          61          62          69
           3          62          70          69
           3          62          63          70
           3          63          71          70
           3          64          65          72
           3          65          73          72
           3          65          66          73
           3          66          74          73
           3          66          67          74
           3          67          75          74
           3          67          68          75
           3          68          76          75
           3          68          69          76
           3          69          77          76
           3          69          70          77
           3          70          78          77
           3          70          71          78
           3          71          79          78
           3          72          73          80
           3          73          81          80
           3          73          74          81
           3          74          82          81
           3          74          75          82
           3          75          83          82
           3          75          76          83
           3          76          84          83
           3          76          77          84
           3          77          85          84
           3          77          78          85
           3          78          86          85
           3          78          79          86
           3          79          87          86
CELL_TYPES          140
5
5
5
5
5
5
5
5
5
5
5
5
5
5
5
5
5
5
5
5
5
5
5
5
5
5
5
5
5
5
5
5
5
5
5
5
5
5
5
5
5
5
5
5
5
5
5
5
5
5
5
5
5
5
5
5
5
5
5
5
5
5
5
5
5
5
5
5
5
5
5
5
5
5
5
5
5
5
5
5
5
5
5
5
5
5
5
5
5
5
5
5
5
5
5
5
5
5
5
5
5
5
5
5
5
5
5
5
5
5
5
5
5
5
5
5
5
5
5
5
5
5
5
5
5
5
5
5
5
5
5
5
5
5
5
5
5
5
5
5
POINT_DATA           88
 SCALARS measuredDisp11 float  1                   
LOOKUP_TABLE default
 1.60000E-04
 2.36000E-04
 3.78000E-04
 5.10000E-04
 5.99000E-04
 7.16000E-04
 8.28000E-04
 9.85000E-04
 1.80000E-04
 2.39000E-04
 4.14000E-04
 4.16000E-04
 5.88000E-04
 7.34000E-04
 8.06000E-04
 9.81000E-04
 1.76000E-04
 3.33000E-04
 3.51000E-04
 3.74000E-04
 5.56000E-04
 6.67000E-04
 7.67000E-04
 8.85000E-04
 2.18000E-04
 3.55000E-04
 4.39000E-04
 5.02000E-04
 5.04000E-04
 5.75000E-04
 6.77000E-04
 7.85000E-04
 2.65000E-04
 4.09000E-04
 5.20000E-04
 5.11000E-04
 5.49000E-04
 5.82000E-04
 5.87000E-04
 8.10000E-04
 2.37000E-04
 3.57000E-04
 5.39000E-04
 4.27000E-04
 5.30000E-04
 6.13000E-04
 6.18000E-04
 6.40000E-04
 2.28000E-04
 3.42000E-04
 5.19000E-04
 4.62000E-04
 5.10000E-04
 6.02000E-04
 5.97000E-04
 8.01000E-04
 1.86000E-04
 3.10000E-04
 4.09000E-04
 5.36000E-04
 5.25000E-04
 5.93000E-04
 6.97000E-04
 7.79000E-04
 1.95000E-04
 2.72000E-04
 3.78000E-04
 4.81000E-04
 5.57000E-04
 6.59000E-04
 8.34000E-04
 8.67000E-04
 1.60000E-04
 2.57000E-04
 4.53000E-04
 4.60000E-04
 5.96000E-04
 7.29000E-04
 8.04000E-04
 9.40000E-04
 1.89000E-04
 2.52000E-04
 3.96000E-04
 4.41000E-04
 5.92000E-04
 7.39000E-04
 9.06000E-04
 9.78000E-04
 SCALARS measuredDisp12 float  1                   
LOOKUP_TABLE default
 1.52300E-03
 1.49400E-03
 1.47800E-03
 1.37500E-03
 1.37100E-03
 1.43200E-03
 1.39700E-03
 1.51600E-03
 1.38600E-03
 1.43000E-03
 1.32100E-03
 1.30900E-03
 1.23200E-03
 1.34200E-03
 1.36900E-03
 1.42900E-03
 1.33200E-03
 1.28300E-03
 1.24700E-03
 1.17400E-03
 1.18700E-03
 1.18400E-03
 1.29500E-03
 1.29500E-03
 1.24200E-03
 1.18800E-03
 1.17600E-03
 1.10000E-03
 1.03800E-03
 1.10900E-03
 1.10200E-03
 1.21700E-03
 1.17100E-03
 1.07600E-03
 1.04500E-03
 1.00900E-03
 1.10900E-03
 1.02900E-03
 1.06300E-03
 1.06500E-03
 1.01900E-03
 1.01900E-03
 1.02100E-03
 9.31000E-04
 1.04200E-03
 1.03900E-03
 9.84000E-04
 9.95000E-04
 8.93000E-04
 9.46000E-04
 9.82000E-04
 9.78000E-04
 9.54000E-04
 9.32000E-04
 9.23000E-04
 9.56000E-04
 7.84000E-04
 7.58000E-04
 8.28000E-04
 9.00000E-04
 8.74000E-04
 9.25000E-04
 9.24000E-04
 8.07000E-04
 6.60000E-04
 7.70000E-04
 8.23000E-04
 8.59000E-04
 8.85000E-04
 8.07000E-04
 7.87000E-04
 7.12000E-04
 6.24000E-04
 5.67000E-04
 6.54000E-04
 7.09000E-04
 7.34000E-04
 7.27000E-04
 6.30000E-04
 5.98000E-04
 5.12000E-04
 4.59000E-04
 5.47000E-04
 5.89000E-04
 5.95000E-04
 6.48000E-04
 5.20000E-04
 5.02000E-04
 SCALARS measuredDisp13 float  1                   
LOOKUP_TABLE default
 4.29600E-03
 4.18100E-03
 3.88600E-03
 3.35800E-03
 2.89100E-03
 2.65600E-03
 2.88000E-03
 3.45500E-03
 3.90000E-03
 4.22100E-03
 4.36400E-03
 4.57000E-03
 4.40600E-03
 4.19500E-03
 3.50900E-03
 2.40800E-03
 1.94000E-03
 2.46100E-03
 3.62000E-03
 4.16300E-03
 4.47600E-03
 4.46600E-03
 4.78600E-03
 4.80500E-03
 4.93700E-03
 4.25500E-03
 2.31600E-03
 1.88700E-03
 2.38500E-03
 4.28500E-03
 4.91200E-03
 4.83700E-03
 4.72200E-03
 4.96400E-03
 5.38100E-03
 6.06900E-03
 6.07100E-03
 4.27400E-03
 4.92200E-03
 4.25300E-03
 6.04200E-03
 5.92800E-03
 5.38200E-03
 4.95300E-03
 5.07000E-03
 5.52600E-03
 6.50000E-03
 6.48300E-03
 4.17200E-03
 4.60700E-03
 4.15100E-03
 6.49300E-03
 6.53600E-03
 5.54200E-03
 4.97000E-03
 4.91300E-03
 5.20500E-03
 5.77700E-03
 5.89600E-03
 4.72800E-03
 5.21500E-03
 4.68700E-03
 5.95300E-03
 5.91800E-03
 5.28800E-03
 4.83100E-03
 4.44600E-03
 4.59100E-03
 4.75900E-03
 4.39000E-03
 3.38200E-03
 3.30100E-03
 3.37800E-03
 4.42100E-03
 4.84600E-03
 4.59600E-03
 4.50300E-03
 4.02500E-03
 4.02900E-03
 4.05400E-03
 3.98400E-03
 3.87100E-03
 3.62800E-03
 3.77000E-03
 3.99600E-03
 4.05500E-03
 4.02200E-03
 4.00000E-03
 SCALARS predictedDisp11 float  1                  
LOOKUP_TABLE default
 2.36188E-04
 3.10469E-04
 3.78000E-04
 5.04094E-04
 7.01059E-04
 8.20152E-04
 9.14300E-04
 9.87898E-04
 2.50659E-04
 3.30545E-04
 4.30291E-04
 5.30427E-04
 6.80661E-04
 7.84626E-04
 8.56331E-04
 9.34927E-04
 2.49368E-04
 3.78016E-04
 4.70402E-04
 5.52934E-04
 6.55516E-04
 7.25078E-04
 8.22430E-04
 9.71104E-04
 2.97099E-04
 4.16487E-04
 5.07717E-04
 5.94274E-04
 6.48393E-04
 6.98160E-04
 7.91186E-04
 8.94304E-04
 3.52705E-04
 4.68252E-04
 5.54342E-04
 6.11339E-04
 6.49047E-04
 6.91262E-04
 7.50444E-04
 8.27602E-04
 4.10949E-04
 4.92664E-04
 5.66737E-04
 6.13147E-04
 6.48994E-04
 6.91868E-04
 7.45927E-04
 8.14167E-04
 3.69783E-04
 4.78446E-04
 5.68628E-04
 6.11560E-04
 6.52927E-04
 7.00535E-04
 7.46591E-04
 8.05643E-04
 3.11512E-04
 4.49826E-04
 5.34593E-04
 5.92968E-04
 6.52250E-04
 7.06696E-04
 7.61815E-04
 8.73429E-04
 2.66416E-04
 3.73735E-04
 4.68328E-04
 5.66646E-04
 6.58075E-04
 7.41693E-04
 8.31229E-04
 9.88259E-04
 1.86560E-04
 3.12915E-04
 4.22731E-04
 5.49704E-04
 6.83566E-04
 7.96649E-04
 8.94847E-04
 1.00886E-03
 2.12769E-04
 2.94605E-04
 3.69446E-04
 5.22402E-04
 6.94159E-04
 8.33579E-04
 9.49560E-04
 1.03769E-03
 SCALARS predictedDisp12 float  1                  
LOOKUP_TABLE default
 1.52300E-03
 1.49400E-03
 1.47800E-03
 1.37500E-03
 1.37100E-03
 1.43200E-03
 1.39700E-03
 1.51600E-03
 1.38600E-03
 1.39965E-03
 1.34007E-03
 1.27536E-03
 1.26728E-03
 1.32194E-03
 1.36517E-03
 1.42900E-03
 1.33200E-03
 1.29009E-03
 1.24119E-03
 1.19120E-03
 1.17145E-03
 1.21819E-03
 1.27655E-03
 1.29500E-03
 1.24200E-03
 1.19877E-03
 1.15034E-03
 1.09253E-03
 1.08267E-03
 1.09404E-03
 1.11956E-03
 1.21700E-03
 1.17100E-03
 1.08816E-03
 1.05092E-03
 1.03698E-03
 1.03852E-03
 1.04174E-03
 1.05211E-03
 1.06500E-03
 1.01900E-03
 1.01507E-03
 1.00430E-03
 1.00198E-03
 1.00469E-03
 1.00158E-03
 9.95342E-04
 9.95000E-04
 8.93000E-04
 9.37309E-04
 9.39534E-04
 9.54309E-04
 9.58647E-04
 9.51107E-04
 9.47562E-04
 9.56000E-04
 7.84000E-04
 8.02739E-04
 8.67076E-04
 9.09579E-04
 9.20802E-04
 9.13527E-04
 8.92547E-04
 8.07000E-04
 6.60000E-04
 7.28668E-04
 8.04127E-04
 8.50659E-04
 8.61158E-04
 8.34374E-04
 7.73432E-04
 7.12000E-04
 6.24000E-04
 5.95454E-04
 6.54824E-04
 7.14260E-04
 7.30208E-04
 7.15435E-04
 6.34546E-04
 5.98000E-04
 5.12000E-04
 4.59000E-04
 5.47000E-04
 5.89000E-04
 5.95000E-04
 6.48000E-04
 5.20000E-04
 5.02000E-04
 SCALARS predictedDisp13 float  1                  
LOOKUP_TABLE default
 7.84040E-03
 7.56333E-03
 6.93448E-03
 6.11406E-03
 5.96387E-03
 6.37869E-03
 6.25139E-03
 6.27405E-03
 7.40638E-03
 7.17465E-03
 6.82375E-03
 6.11308E-03
 6.23658E-03
 6.68481E-03
 6.66902E-03
 6.73145E-03
 6.47632E-03
 6.66848E-03
 6.75202E-03
 6.58501E-03
 6.95378E-03
 7.29947E-03
 7.13812E-03
 7.00078E-03
 6.18929E-03
 6.51675E-03
 6.85521E-03
 7.01334E-03
 7.46889E-03
 7.47529E-03
 7.19219E-03
 7.15824E-03
 6.48987E-03
 6.67012E-03
 6.75047E-03
 6.89390E-03
 7.07194E-03
 6.96136E-03
 7.10193E-03
 7.19152E-03
 6.90528E-03
 6.68722E-03
 6.68489E-03
 6.89857E-03
 6.85334E-03
 6.72533E-03
 6.70924E-03
 6.73718E-03
 6.85396E-03
 6.80957E-03
 6.95276E-03
 6.98995E-03
 6.78266E-03
 6.68433E-03
 6.64298E-03
 6.79543E-03
 6.75171E-03
 6.82321E-03
 6.90021E-03
 6.78121E-03
 6.73944E-03
 6.96470E-03
 7.05595E-03
 6.89523E-03
 6.59042E-03
 6.92090E-03
 7.19135E-03
 7.10382E-03
 7.12102E-03
 7.21517E-03
 6.98251E-03
 6.82932E-03
 7.14271E-03
 7.53328E-03
 7.45374E-03
 7.15138E-03
 7.06037E-03
 7.01937E-03
 6.93913E-03
 6.92913E-03
 7.78865E-03
 7.90988E-03
 7.29712E-03
 6.90828E-03
 6.72841E-03
 6.63386E-03
 6.90005E-03
 6.95273E-03
 SCALARS dual11 float  1                           
LOOKUP_TABLE default
 7.19581E-10
 5.75520E-10
 0.00000E+00
 7.51390E-11
 2.94330E-10
 1.37728E-09
 1.10717E-09
 8.73767E-10
 1.98570E-10
-8.36796E-11
 2.62045E-10
-4.24362E-10
 7.92023E-10
 7.92246E-10
 7.72742E-10
 7.18356E-10
-7.12219E-10
-1.04593E-11
-4.37222E-12
 3.17915E-10
 5.43420E-10
 7.72307E-10
-3.93579E-10
-2.33947E-10
-6.90363E-10
-3.37515E-10
-1.52278E-10
 6.30837E-10
 1.39570E-09
 2.92655E-10
-6.09221E-10
-9.61643E-10
-8.70335E-10
-7.62912E-10
-4.44303E-10
 1.49939E-10
-4.94431E-11
-3.35627E-10
-6.07446E-10
-5.08223E-10
-9.86132E-10
-1.06423E-09
-9.32348E-10
-9.64450E-10
-1.25478E-09
-7.43537E-10
-1.16053E-10
-8.71809E-11
-1.47764E-09
-1.27131E-09
-9.02870E-10
-1.52036E-09
-1.30137E-09
-4.25443E-10
-1.87606E-10
-5.31003E-10
-2.15305E-09
-1.16583E-09
-1.08024E-09
-1.41068E-09
-1.34020E-09
-1.51588E-09
-1.43090E-09
-1.23757E-09
-7.00329E-10
-1.40578E-09
-1.23292E-09
-1.44770E-09
-2.21669E-09
-2.30637E-09
-2.46170E-09
-2.23575E-09
-7.29279E-10
-8.49160E-10
-1.34144E-09
-1.95003E-09
-2.43874E-09
-2.76572E-09
-2.44775E-09
-2.17235E-09
-1.60902E-10
-9.85107E-10
-1.52888E-09
-2.18225E-09
-2.50822E-09
-2.50111E-09
-2.25367E-09
-2.06137E-09
 SCALARS dual12 float  1                           
LOOKUP_TABLE default
 0.00000E+00
 0.00000E+00
 0.00000E+00
 0.00000E+00
 0.00000E+00
 0.00000E+00
 0.00000E+00
 0.00000E+00
 0.00000E+00
 3.96058E-09
-3.03324E-12
 3.35997E-09
-6.09045E-09
-1.63888E-10
 8.78464E-10
 0.00000E+00
 0.00000E+00
-3.93083E-10
 1.44476E-09
-1.62639E-09
-3.34819E-09
-5.35431E-09
 2.28557E-09
 0.00000E+00
 0.00000E+00
-1.66434E-09
 2.54447E-09
-1.96194E-09
-3.28604E-09
 1.55103E-09
-8.10836E-10
 0.00000E+00
 0.00000E+00
-2.20162E-09
-1.44393E-09
-3.64940E-09
 3.61090E-09
 3.49989E-09
 1.80477E-09
 0.00000E+00
 0.00000E+00
 3.30219E-11
-4.42059E-10
-3.78324E-09
 3.61028E-09
 4.40928E-09
 1.04487E-11
 0.00000E+00
 0.00000E+00
 9.46274E-10
 1.06374E-09
-7.19408E-10
-7.56811E-10
-1.35312E-09
-1.05075E-09
 0.00000E+00
 0.00000E+00
-6.39413E-09
-4.26765E-09
-3.41286E-09
-4.74041E-09
-6.80029E-10
 3.53896E-09
 0.00000E+00
 0.00000E+00
 1.60213E-09
 4.36887E-10
-6.47632E-10
 5.05946E-10
-1.18536E-09
 4.25877E-09
 0.00000E+00
 0.00000E+00
-3.43186E-09
-9.51783E-10
-2.04896E-10
 1.05821E-09
 1.87971E-09
 1.07728E-09
 0.00000E+00
 0.00000E+00
 0.00000E+00
 0.00000E+00
 0.00000E+00
 0.00000E+00
 0.00000E+00
 0.00000E+00
 0.00000E+00
 SCALARS dual13 float  1                           
LOOKUP_TABLE default
 3.15162E-08
 3.97488E-08
 2.07955E-08
 1.15544E-09
-2.94177E-08
-3.40531E-08
-4.16291E-09
 6.91984E-09
 2.49747E-08
 1.47316E-08
 8.63311E-09
-1.11306E-08
-2.35607E-08
-1.88460E-08
-3.57312E-10
 8.51311E-09
-1.55070E-08
-1.37327E-08
-6.45702E-09
-1.83483E-11
 1.51534E-08
 1.80624E-08
 1.55852E-08
 1.02598E-08
-7.29673E-09
-7.13167E-09
-1.08116E-09
 2.01501E-08
 8.01613E-08
 5.73092E-08
 2.36098E-08
 1.99659E-08
 9.94947E-10
-1.22361E-09
 1.71266E-09
 4.82559E-08
 9.20785E-08
 4.84784E-08
 1.70473E-08
 4.90539E-09
 1.54358E-08
 1.57998E-08
 1.07636E-08
 3.27507E-10
-4.30027E-08
-6.33935E-08
-3.54671E-08
-1.59879E-08
-8.33667E-09
-1.90413E-08
-3.48841E-08
-7.17810E-08
-1.25446E-07
-8.42693E-08
 3.56532E-09
 2.11085E-08
-1.61426E-08
-1.61231E-08
-1.35578E-08
-1.50848E-08
-1.12840E-09
 3.15244E-08
 3.68043E-08
 2.66563E-08
 5.16583E-08
 4.63575E-08
 3.62219E-08
 3.59801E-08
 3.36811E-08
 2.51650E-08
 1.33089E-08
 9.24551E-09
 1.56896E-08
 2.24233E-08
 2.54382E-08
 2.05273E-08
 1.48423E-08
 1.20815E-09
-1.23117E-08
-6.61226E-09
 4.96120E-08
 4.98286E-08
 2.64379E-08
 9.85209E-09
-4.98400E-09
-1.81003E-08
-1.80707E-08
-1.14093E-08
 SCALARS property1 float  1                        
LOOKUP_TABLE default
 0.00000E+00
 0.00000E+00
 0.00000E+00
 0.00000E+00
 0.00000E+00
 0.00000E+00
 0.00000E+00
 0.00000E+00
 0.00000E+00
 0.00000E+00
 0.00000E+00
 0.00000E+00
 0.00000E+00
 0.00000E+00
 0.00000E+00
 0.00000E+00
 0.00000E+00
 0.00000E+00
 0.00000E+00
 0.00000E+00
 0.00000E+00
 0.00000E+00
 0.00000E+00
 0.00000E+00
 0.00000E+00
 0.00000E+00
 0.00000E+00
 0.00000E+00
 0.00000E+00
 0.00000E+00
 0.00000E+00
 0.00000E+00
 0.00000E+00
 0.00000E+00
 0.00000E+00
 0.00000E+00
 0.00000E+00
 0.00000E+00
 0.00000E+00
 0.00000E+00
 0.00000E+00
 0.00000E+00
 0.00000E+00
 0.00000E+00
 0.00000E+00
 0.00000E+00
 0.00000E+00
 0.00000E+00
 0.00000E+00
 0.00000E+00
 0.00000E+00
 0.00000E+00
 0.00000E+00
 0.00000E+00
 0.00000E+00
 0.00000E+00
 0.00000E+00
 0.00000E+00
 0.00000E+00
 0.00000E+00
 0.00000E+00
 0.00000E+00
 0.00000E+00
 0.00000E+00
 0.00000E+00
 0.00000E+00
 0.00000E+00
 0.00000E+00
 0.00000E+00
 0.00000E+00
 0.00000E+00
 0.00000E+00
 0.00000E+00
 0.00000E+00
 0.00000E+00
 0.00000E+00
 0.00000E+00
 0.00000E+00
 0.00000E+00
 0.00000E+00
 0.00000E+00
 0.00000E+00
 0.00000E+00
 0.00000E+00
 0.00000E+00
 0.00000E+00
 0.00000E+00
 0.00000E+00
 SCALARS property2 float  1                        
LOOKUP_TABLE default
 1.28993E+00
 2.36247E+00
 1.01578E+00
 1.33805E+00
 1.00000E+00
 1.85954E+00
 3.38943E+00
 1.81446E+00
 2.52452E+00
 2.30791E+00
 1.61438E+00
 1.00064E+00
 1.53494E+00
 2.27698E+00
 3.32654E+00
 1.81679E+00
 1.00000E+00
 1.31644E+00
 2.92208E+00
 1.52719E+00
 1.55197E+00
 1.24460E+00
 1.02300E+00
 1.00367E+00
 1.62818E+00
 1.65713E+00
 1.68017E+00
 1.74743E+00
 3.19173E+00
 1.01971E+00
 1.02043E+00
 1.42131E+00
 1.13180E+00
 1.40639E+00
 2.07168E+00
 4.44712E+00
 5.59770E+00
 4.15542E+00
 2.87165E+00
 1.58298E+00
 2.03132E+00
 2.97933E+00
 4.00081E+00
 4.99833E+00
 4.92779E+00
 3.64463E+00
 2.82101E+00
 1.82696E+00
 1.55510E+00
 1.00000E+00
 2.41409E+00
 3.92228E+00
 3.20665E+00
 3.55239E+00
 4.36601E+00
 2.06133E+00
 1.00000E+00
 1.00000E+00
 3.57116E+00
 4.27329E+00
 4.73237E+00
 4.40314E+00
 2.33764E+00
 1.00000E+00
 2.28830E+00
 2.33396E+00
 1.64433E+00
 1.28218E+00
 1.32532E+00
 1.39890E+00
 1.00167E+00
 1.00000E+00
 1.00000E+00
 1.01365E+00
 1.15180E+00
 1.27949E+00
 1.26068E+00
 1.98477E+00
 1.30127E+00
 1.82837E+00
 2.13124E+00
 2.44710E+00
 1.36885E+00
 1.01881E+00
 1.09717E+00
 1.92249E+00
 2.17559E+00
 1.12237E+00
 SCALARS gradient1 float  1                        
LOOKUP_TABLE default
 0.00000E+00
 0.00000E+00
 0.00000E+00
 0.00000E+00
 0.00000E+00
 0.00000E+00
 0.00000E+00
 0.00000E+00
 0.00000E+00
 0.00000E+00
 0.00000E+00
 0.00000E+00
 0.00000E+00
 0.00000E+00
 0.00000E+00
 0.00000E+00
 0.00000E+00
 0.00000E+00
 0.00000E+00
 0.00000E+00
 0.00000E+00
 0.00000E+00
 0.00000E+00
 0.00000E+00
 0.00000E+00
 0.00000E+00
 0.00000E+00
 0.00000E+00
 0.00000E+00
 0.00000E+00
 0.00000E+00
 0.00000E+00
 0.00000E+00
 0.00000E+00
 0.00000E+00
 0.00000E+00
 0.00000E+00
 0.00000E+00
 0.00000E+00
 0.00000E+00
 0.00000E+00
 0.00000E+00
 0.00000E+00
 0.00000E+00
 0.00000E+00
 0.00000E+00
 0.00000E+00
 0.00000E+00
 0.00000E+00
 0.00000E+00
 0.00000E+00
 0.00000E+00
 0.00000E+00
 0.00000E+00
 0.00000E+00
 0.00000E+00
 0.00000E+00
 0.00000E+00
 0.00000E+00
 0.00000E+00
 0.00000E+00
 0.00000E+00
 0.00000E+00
 0.00000E+00
 0.00000E+00
 0.00000E+00
 0.00000E+00
 0.00000E+00
 0.00000E+00
 0.00000E+00
 0.00000E+00
 0.00000E+00
 0.00000E+00
 0.00000E+00
 0.00000E+00
 0.00000E+00
 0.00000E+00
 0.00000E+00
 0.00000E+00
 0.00000E+00
 0.00000E+00
 0.00000E+00
 0.00000E+00
 0.00000E+00
 0.00000E+00
 0.00000E+00
 0.00000E+00
 0.00000E+00
 SCALARS gradient2 float  1                        
LOOKUP_TABLE default
-2.73687E-15
-1.94581E-13
-9.56150E-14
-2.40166E-13
 3.75173E-13
 2.35192E-13
-2.68359E-14
-2.01875E-14
-1.56143E-13
 4.26588E-14
-1.75578E-13
 3.74378E-13
 4.41991E-13
 2.09445E-13
-6.96824E-15
-6.32265E-14
 2.78410E-13
 4.22187E-13
 5.01358E-14
-7.68204E-14
 7.89067E-13
-1.67909E-13
 9.52277E-13
-6.35362E-13
 1.23680E-13
 1.09258E-13
 2.67894E-13
 2.67391E-13
-5.09968E-13
-7.07014E-13
-1.36895E-13
-5.45423E-14
 7.24441E-14
 1.76110E-13
 3.30477E-13
-4.46287E-14
-2.92645E-13
-2.37326E-13
-6.92255E-14
 4.12173E-14
-6.35983E-14
-1.65495E-13
-7.63397E-14
-1.07867E-13
 5.86939E-14
 2.68574E-13
 2.11753E-13
 1.00338E-14
-1.54612E-14
 4.95767E-13
 3.07548E-13
 1.33254E-13
 4.42921E-13
 3.06494E-13
-1.15198E-13
-6.51531E-14
 6.02140E-13
 6.26317E-13
-1.89128E-14
-1.47039E-14
-1.19121E-13
-2.01408E-13
-1.82963E-13
-2.13489E-14
-2.71998E-13
-2.86930E-13
-9.48311E-14
-6.17594E-13
 2.12100E-14
-1.96031E-13
 2.28684E-13
-5.28377E-14
 3.29022E-13
 3.09912E-13
-1.79815E-13
-2.32441E-13
-3.64533E-13
 5.04168E-14
 4.92271E-13
 5.52370E-14
-2.35923E-13
-4.08243E-13
-1.81420E-13
-4.32220E-14
 1.46396E-13
 2.00208E-13
 1.15340E-13
 4.78890E-15
CELL_DATA         140
SCALARS elemDataMatch  float  1
LOOKUP_TABLE default
 0.00000E+00
 7.50841E-14
 1.60767E-13
 1.24319E-13
 6.34926E-14
 8.24982E-14
 1.97608E-13
 1.63526E-13
 2.17344E-13
 1.69311E-13
 7.02401E-14
 8.02168E-14
 2.56360E-15
 2.56360E-15
 7.50841E-14
 6.65102E-14
 7.02914E-14
 4.53865E-14
 9.97179E-14
 9.91345E-14
 1.78742E-13
 1.79326E-13
 1.07777E-13
 1.04817E-13
 1.49314E-13
 1.50179E-13
 6.87345E-14
 5.94595E-14
 4.09684E-15
 1.80545E-14
 2.62510E-14
 4.67735E-14
 1.02592E-13
 1.07556E-13
 3.63927E-14
 1.26412E-13
 5.27266E-13
 5.29966E-13
 9.81064E-14
 7.44338E-14
 4.45821E-14
 5.38252E-14
 9.46009E-15
 2.92199E-14
 5.19987E-14
 4.59915E-14
 5.32569E-14
 7.60699E-14
 4.03279E-13
 4.36512E-13
 7.69638E-13
 9.05349E-13
 6.00439E-14
 6.16025E-14
 2.39931E-14
 2.06862E-14
 1.20473E-14
 1.04927E-14
 1.37226E-14
 2.73192E-14
 6.04920E-14
 4.51529E-13
 8.87713E-13
 6.79085E-13
 8.54515E-13
 4.47567E-13
 2.51241E-13
 2.55374E-13
 1.80185E-14
 2.24596E-14
 1.25850E-15
 9.42917E-15
 6.15465E-14
 2.83506E-13
 4.15263E-13
 4.42953E-13
 3.75180E-13
 2.91454E-13
 2.74042E-13
 9.58684E-14
 1.06480E-13
 2.18183E-13
 1.47634E-13
 1.05324E-13
 6.15929E-15
 1.46456E-13
 2.62957E-13
 5.05908E-13
 2.23359E-13
 2.43465E-13
 3.62209E-14
 2.65482E-13
 5.46152E-13
 4.50806E-13
 7.23544E-14
 1.16359E-13
 1.33664E-13
 1.72716E-13
 1.63202E-13
 1.93568E-13
 2.93233E-13
 3.12965E-13
 1.11328E-13
 6.79609E-14
 1.70920E-13
 1.49489E-13
 1.60730E-13
 1.09265E-13
 1.09255E-13
 1.10863E-13
 1.61545E-13
 3.21369E-14
 1.39291E-13
 1.36030E-13
 1.59959E-13
 1.10870E-13
 4.15431E-14
 5.17279E-15
 4.92275E-14
 4.10714E-14
 6.99799E-14
 4.90173E-14
 5.93415E-14
 4.83293E-14
 1.15720E-14
 3.60786E-15
 6.60150E-14
 6.60150E-14
 6.74518E-14
 5.53847E-17
 2.56697E-15
 2.25621E-15
 2.25349E-15
 1.17212E-15
 1.46608E-14
 1.09057E-14
 9.49380E-15
 1.68501E-15
 1.68501E-15
 0.00000E+00
SCALARS elemRegul  float  1
LOOKUP_TABLE default
 3.12427E-14
 3.08634E-14
 3.12393E-14
 3.12267E-14
 3.12078E-14
 3.12102E-14
 3.11646E-14
 3.12159E-14
 3.12310E-14
 3.12231E-14
 3.12422E-14
 3.12323E-14
 3.12421E-14
 3.12414E-14
 3.12418E-14
 3.12320E-14
 3.12367E-14
 3.12454E-14
 3.12406E-14
 3.12412E-14
 3.12153E-14
 1.84776E-14
 3.12146E-14
 3.12332E-14
 3.12410E-14
 3.12464E-14
 3.12474E-14
 3.12205E-14
 3.12106E-14
 3.10838E-14
 3.12428E-14
 3.12373E-14
 3.12444E-14
 3.08860E-14
 3.08574E-14
 3.12459E-14
 3.12430E-14
 3.12459E-14
 3.10553E-14
 3.52759E-16
 1.18218E-14
 3.11918E-14
 3.11712E-14
 3.11094E-14
 3.09449E-14
 3.12173E-14
 3.11267E-14
 3.12485E-14
 3.12479E-14
 3.12473E-14
 3.12481E-14
 3.12484E-14
 3.12480E-14
 3.12462E-14
 3.12446E-14
 3.12384E-14
 3.12279E-14
 3.12442E-14
 3.12433E-14
 3.12459E-14
 3.12479E-14
 3.12350E-14
 3.12380E-14
 3.12070E-14
 3.12423E-14
 3.12398E-14
 3.12398E-14
 3.12213E-14
 3.12383E-14
 3.12314E-14
 3.12327E-14
 3.12454E-14
 3.12461E-14
 3.12457E-14
 3.12444E-14
 3.12443E-14
 3.12332E-14
 3.12444E-14
 3.12458E-14
 3.10982E-14
 3.12216E-14
 3.12436E-14
 3.12442E-14
 3.12464E-14
 3.12183E-14
 0.00000E+00
 3.12402E-14
 3.12475E-14
 3.12446E-14
 3.12183E-14
 3.12193E-14
 3.12423E-14
 3.12420E-14