# vtk DataFile Version 2.0
Output of NLACE
ASCII
DATASET UNSTRUCTURED_GRID
POINTS           48 FLOAT
 0.000000E+00  1.000000E+00 -5.000000E-01
 2.000000E+00  1.000000E+00 -5.000000E-01
 4.000000E+00  1.000000E+00 -5.000000E-01
 6.000000E+00  1.000000E+00 -5.000000E-01
 0.000000E+00  3.000000E+00 -5.000000E-01
 2.000000E+00  3.000000E+00 -5.000000E-01
 4.000000E+00  3.000000E+00 -5.000000E-01
 6.000000E+00  3.000000E+00 -5.000000E-01
 0.000000E+00  5.000000E+00 -5.000000E-01
 2.000000E+00  5.000000E+00 -5.000000E-01
 4.000000E+00  5.000000E+00 -5.000000E-01
 6.000000E+00  5.000000E+00 -5.000000E-01
 0.000000E+00  1.000000E+00 -2.500000E+00
 2.000000E+00  1.000000E+00 -2.500000E+00
 4.000000E+00  1.000000E+00 -2.500000E+00
 6.000000E+00  1.000000E+00 -2.500000E+00
 0.000000E+00  3.000000E+00 -2.500000E+00
 2.000000E+00  3.000000E+00 -2.500000E+00
 4.000000E+00  3.000000E+00 -2.500000E+00
 6.000000E+00  3.000000E+00 -2.500000E+00
 0.000000E+00  5.000000E+00 -2.500000E+00
 2.000000E+00  5.000000E+00 -2.500000E+00
 4.000000E+00  5.000000E+00 -2.500000E+00
 6.000000E+00  5.000000E+00 -2.500000E+00
 0.000000E+00  1.000000E+00 -4.500000E+00
 2.000000E+00  1.000000E+00 -4.500000E+00
 4.000000E+00  1.000000E+00 -4.500000E+00
 6.000000E+00  1.000000E+00 -4.500000E+00
 0.000000E+00  3.000000E+00 -4.500000E+00
 2.000000E+00  3.000000E+00 -4.500000E+00
 4.000000E+00  3.000000E+00 -4.500000E+00
 6.000000E+00  3.000000E+00 -4.500000E+00
 0.000000E+00  5.000000E+00 -4.500000E+00
 2.000000E+00  5.000000E+00 -4.500000E+00
 4.000000E+00  5.000000E+00 -4.500000E+00
 6.000000E+00  5.000000E+00 -4.500000E+00
 0.000000E+00  1.000000E+00 -6.500000E+00
 2.000000E+00  1.000000E+00 -6.500000E+00
 4.000000E+00  1.000000E+00 -6.500000E+00
 6.000000E+00  1.000000E+00 -6.500000E+00
 0.000000E+00  3.000000E+00 -6.500000E+00
 2.000000E+00  3.000000E+00 -6.500000E+00
 4.000000E+00  3.000000E+00 -6.500000E+00
 6.000000E+00  3.000000E+00 -6.500000E+00
 0.000000E+00  5.000000E+00 -6.500000E+00
 2.000000E+00  5.000000E+00 -6.500000E+00
 4.000000E+00  5.000000E+00 -6.500000E+00
 6.000000E+00  5.000000E+00 -6.500000E+00
CELLS           90         450
4    0   12   16   13
4    5   16   17   13
4    5   16   13    0
4    5    0    4   16
4    1    0    5   13
4    5   13   17   18
4    2   13   18   14
4    2   13    5   18
4    1   13    5    2
4    6    5   18    2
4    2   14   18   15
4    7   18   19   15
4    7   18   15    2
4    7    2    6   18
4    3    2    7   15
4    8   16   20   21
4    5   16   21   17
4    5   16    8   21
4    4   16    8    5
4    9    8   21    5
4    5   17   21   18
4   10   21   22   18
4   10   21   18    5
4   10    5    9   21
4    6    5   10   18
4   10   18   22   23
4    7   18   23   19
4    7   18   10   23
4    6   18   10    7
4   11   10   23    7
4   12   24   28   25
4   17   28   29   25
4   17   28   25   12
4   17   12   16   28
4   13   12   17   25
4   17   25   29   30
4   14   25   30   26
4   14   25   17   30
4   13   25   17   14
4   18   17   30   14
4   14   26   30   27
4   19   30   31   27
4   19   30   27   14
4   19   14   18   30
4   15   14   19   27
4   20   28   32   33
4   17   28   33   29
4   17   28   20   33
4   16   28   20   17
4   21   20   33   17
4   17   29   33   30
4   22   33   34   30
4   22   33   30   17
4   22   17   21   33
4   18   17   22   30
4   22   30   34   35
4   19   30   35   31
4   19   30   22   35
4   18   30   22   19
4   23   22   35   19
4   24   36   40   37
4   29   40   41   37
4   29   40   37   24
4   29   24   28   40
4   25   24   29   37
4   29   37   41   42
4   26   37   42   38
4   26   37   29   42
4   25   37   29   26
4   30   29   42   26
4   26   38   42   39
4   31   42   43   39
4   31   42   39   26
4   31   26   30   42
4   27   26   31   39
4   32   40   44   45
4   29   40   45   41
4   29   40   32   45
4   28   40   32   29
4   33   32   45   29
4   29   41   45   42
4   34   45   46   42
4   34   45   42   29
4   34   29   33   45
4   30   29   34   42
4   34   42   46   47
4   31   42   47   43
4   31   42   34   47
4   30   42   34   31
4   35   34   47   31
CELL_TYPES           90
10
10
10
10
10
10
10
10
10
10
10
10
10
10
10
10
10
10
10
10
10
10
10
10
10
10
10
10
10
10
10
10
10
10
10
10
10
10
10
10
10
10
10
10
10
10
10
10
10
10
10
10
10
10
10
10
10
10
10
10
10
10
10
10
10
10
10
10
10
10
10
10
10
10
10
10
10
10
10
10
10
10
10
10
10
10
10
10
10
10
POINT_DATA           48
 SCALARS measuredDisp11 float  1                   
LOOKUP_TABLE default
-1.00000E-01
-3.00000E-02
 3.00000E-02
 1.00000E-01
-1.00000E-01
-3.00000E-02
 3.00000E-02
 1.00000E-01
-1.00000E-01
-3.00000E-02
 3.00000E-02
 1.00000E-01
-1.00000E-01
-3.00000E-02
 3.00000E-02
 1.00000E-01
-1.00000E-01
-3.00000E-02
 3.00000E-02
 1.00000E-01
-1.00000E-01
-3.00000E-02
 3.00000E-02
 1.00000E-01
-1.00000E-01
-3.00000E-02
 3.00000E-02
 1.00000E-01
-1.00000E-01
-3.00000E-02
 3.00000E-02
 1.00000E-01
-1.00000E-01
-3.00000E-02
 3.00000E-02
 1.00000E-01
-1.00000E-01
-3.00000E-02
 3.00000E-02
 1.00000E-01
-1.00000E-01
-3.00000E-02
 3.00000E-02
 1.00000E-01
-1.00000E-01
-3.00000E-02
 3.00000E-02
 1.00000E-01
 SCALARS measuredDisp12 float  1                   
LOOKUP_TABLE default
-8.00000E-02
-8.00000E-02
-8.00000E-02
-8.00000E-02
 0.00000E+00
 0.00000E+00
 0.00000E+00
 0.00000E+00
 8.00000E-02
 8.00000E-02
 8.00000E-02
 8.00000E-02
-8.00000E-02
-8.00000E-02
-8.00000E-02
-8.00000E-02
 0.00000E+00
 0.00000E+00
 0.00000E+00
 0.00000E+00
 8.00000E-02
 8.00000E-02
 8.00000E-02
 8.00000E-02
-8.00000E-02
-8.00000E-02
-8.00000E-02
-8.00000E-02
 0.00000E+00
 0.00000E+00
 0.00000E+00
 0.00000E+00
 8.00000E-02
 8.00000E-02
 8.00000E-02
 8.00000E-02
-8.00000E-02
-8.00000E-02
-8.00000E-02
-8.00000E-02
 0.00000E+00
 0.00000E+00
 0.00000E+00
 0.00000E+00
 8.00000E-02
 8.00000E-02
 8.00000E-02
 8.00000E-02
 SCALARS measuredDisp13 float  1                   
LOOKUP_TABLE default
 1.00000E-03
 1.00000E-03
 1.00000E-03
 1.00000E-03
 1.00000E-03
 1.00000E-03
 1.00000E-03
 1.00000E-03
 1.00000E-03
 1.00000E-03
 1.00000E-03
 1.00000E-03
 7.00000E-03
 7.00000E-03
 7.00000E-03
 7.00000E-03
 7.00000E-03
 7.00000E-03
 7.00000E-03
 7.00000E-03
 7.00000E-03
 7.00000E-03
 7.00000E-03
 7.00000E-03
 1.40000E-02
 1.40000E-02
 1.40000E-02
 1.40000E-02
 1.40000E-02
 1.30000E-02
 1.30000E-02
 1.40000E-02
 1.40000E-02
 1.40000E-02
 1.40000E-02
 1.40000E-02
 2.00000E-02
 2.00000E-02
 2.00000E-02
 2.00000E-02
 2.00000E-02
 1.90000E-02
 1.90000E-02
 2.00000E-02
 2.00000E-02
 2.00000E-02
 2.00000E-02
 2.00000E-02
 SCALARS measuredDisp14 float  1                   
LOOKUP_TABLE default
 1.00000E-01
 1.00000E-01
 1.00000E-01
 1.00000E-01
 1.00000E-01
 1.00000E-01
 1.00000E-01
 1.00000E-01
 1.00000E-01
 1.00000E-01
 1.00000E-01
 1.00000E-01
 0.00000E+00
 0.00000E+00
 0.00000E+00
 0.00000E+00
 0.00000E+00
 0.00000E+00
 0.00000E+00
 0.00000E+00
 0.00000E+00
 0.00000E+00
 0.00000E+00
 0.00000E+00
 0.00000E+00
 0.00000E+00
 0.00000E+00
 0.00000E+00
 0.00000E+00
 0.00000E+00
 0.00000E+00
 0.00000E+00
 0.00000E+00
 0.00000E+00
 0.00000E+00
 0.00000E+00
 0.00000E+00
 0.00000E+00
 0.00000E+00
 0.00000E+00
 0.00000E+00
 0.00000E+00
 0.00000E+00
 0.00000E+00
 0.00000E+00
 0.00000E+00
 0.00000E+00
 0.00000E+00
 SCALARS predictedDisp11 float  1                  
LOOKUP_TABLE default
-3.31738E-02
-3.00440E-02
-2.71096E-02
-2.43727E-02
-3.31379E-02
-3.00000E-02
-2.71800E-02
-2.45769E-02
-3.31772E-02
-3.00474E-02
-2.71130E-02
-2.43761E-02
-3.32794E-02
-3.01822E-02
-2.70223E-02
-2.41579E-02
-3.31810E-02
-3.00953E-02
-2.71303E-02
-2.44577E-02
-3.32828E-02
-3.01856E-02
-2.70257E-02
-2.41613E-02
-3.31281E-02
-3.02967E-02
-2.71349E-02
-2.40809E-02
-3.28595E-02
-3.01744E-02
-2.72152E-02
-2.42284E-02
-3.31315E-02
-3.03001E-02
-2.71383E-02
-2.40843E-02
-3.30107E-02
-3.03164E-02
-2.72248E-02
-2.40304E-02
-3.28658E-02
-3.03142E-02
-2.72124E-02
-2.39173E-02
-3.30141E-02
-3.03198E-02
-2.72282E-02
-2.40338E-02
 SCALARS predictedDisp12 float  1                  
LOOKUP_TABLE default
-3.05741E-03
-3.00685E-03
-2.67501E-03
-2.71784E-03
-1.70258E-06
 0.00000E+00
 1.70231E-06
 3.40444E-06
 3.05401E-03
 3.00685E-03
 2.67842E-03
 2.72465E-03
-3.07385E-03
-3.13677E-03
-2.85901E-03
-2.90144E-03
-1.70262E-06
-8.09812E-11
 1.70235E-06
 3.40454E-06
 3.07044E-03
 3.13676E-03
 2.86241E-03
 2.90825E-03
-2.84557E-03
-2.86734E-03
-3.02723E-03
-3.02380E-03
-1.70235E-06
-1.48227E-10
 1.70228E-06
 3.40474E-06
 2.84217E-03
 2.86734E-03
 3.03064E-03
 3.03061E-03
-2.70675E-03
-2.84355E-03
-3.23511E-03
-3.13612E-03
-1.70235E-06
-2.67074E-10
 1.70229E-06
 3.40500E-06
 2.70335E-03
 2.84355E-03
 3.23851E-03
 3.14293E-03
 SCALARS predictedDisp13 float  1                  
LOOKUP_TABLE default
 1.00000E-03
 1.00000E-03
 1.00000E-03
 1.00000E-03
 1.00000E-03
 1.00000E-03
 1.00000E-03
 1.00000E-03
 1.00000E-03
 1.00000E-03
 1.00000E-03
 1.00000E-03
 7.00000E-03
 7.00000E-03
 7.00000E-03
 7.00000E-03
 7.00000E-03
 9.41836E-03
 4.85542E-03
 7.00000E-03
 7.00000E-03
 7.00000E-03
 7.00000E-03
 7.00000E-03
 1.40000E-02
 1.40000E-02
 1.40000E-02
 1.40000E-02
 1.40000E-02
 1.57783E-02
 1.12826E-02
 1.40000E-02
 1.40000E-02
 1.40000E-02
 1.40000E-02
 1.40000E-02
 2.00000E-02
 2.00000E-02
 2.00000E-02
 2.00000E-02
 2.00000E-02
 1.90000E-02
 1.90000E-02
 2.00000E-02
 2.00000E-02
 2.00000E-02
 2.00000E-02
 2.00000E-02
 SCALARS predictedDisp14 float  1                  
LOOKUP_TABLE default
 3.16354E-03
 3.14603E-03
 3.02505E-03
 3.09756E-03
 3.17607E-03
 3.15483E-03
 3.01096E-03
 3.04600E-03
 3.16354E-03
 3.14603E-03
 3.02505E-03
 3.09756E-03
 3.22766E-03
 3.19188E-03
 3.13402E-03
 3.14816E-03
 3.23298E-03
 3.19702E-03
 3.10746E-03
 3.17212E-03
 3.22766E-03
 3.19188E-03
 3.13402E-03
 3.14816E-03
 3.11502E-03
 3.09096E-03
 3.07196E-03
 3.14073E-03
 3.15222E-03
 3.01598E-03
 3.11419E-03
 3.10533E-03
 3.11502E-03
 3.09096E-03
 3.07196E-03
 3.14073E-03
 3.00120E-03
 2.86808E-03
 2.96098E-03
 2.97063E-03
 2.93879E-03
 2.83417E-03
 2.93871E-03
 2.98681E-03
 3.00120E-03
 2.86808E-03
 2.96098E-03
 2.97063E-03
 SCALARS dual11 float  1                           
LOOKUP_TABLE default
 3.95901E-06
 7.29518E-06
 1.69871E-05
 4.34954E-05
-3.46763E-06
 0.00000E+00
 1.76375E-05
 5.29578E-05
-3.07287E-06
 2.63469E-07
 9.95651E-06
 3.64646E-05
 2.32832E-05
 1.95859E-05
 8.12049E-06
 1.82011E-05
 9.14268E-06
 1.22722E-05
 1.19201E-05
 2.71697E-05
 1.62513E-05
 1.25538E-05
 1.08932E-06
 1.11697E-05
 6.47191E-06
 1.70643E-05
 1.58793E-05
 2.61825E-05
-1.24231E-05
 9.14063E-06
 2.12964E-05
 3.50836E-05
-5.59226E-07
 1.00330E-05
 8.84753E-06
 1.91507E-05
-3.60749E-05
 1.08910E-05
 3.69166E-05
 4.63462E-05
-5.88854E-05
 2.28017E-06
 4.10985E-05
 4.83714E-05
-4.31056E-05
 3.85976E-06
 2.98840E-05
 3.93140E-05
 SCALARS dual12 float  1                           
LOOKUP_TABLE default
-1.27557E-05
-1.09603E-05
-2.71208E-05
-2.11004E-05
-3.51608E-06
 0.00000E+00
 3.51554E-06
 7.03072E-06
 5.72339E-06
 1.09601E-05
 3.41521E-05
 3.51625E-05
 1.89314E-06
 6.37667E-06
 4.40700E-06
 9.47183E-07
-3.51613E-06
-1.49770E-10
 3.51562E-06
 7.03089E-06
-8.92573E-06
-6.37727E-06
 2.62459E-06
 1.31156E-05
-1.28198E-05
-1.56879E-05
 1.75139E-06
-3.20540E-06
-3.51560E-06
-2.93099E-10
 3.51548E-06
 7.03131E-06
 5.78770E-06
 1.56869E-05
 5.27983E-06
 1.72685E-05
-5.21085E-05
-5.82725E-05
-1.98516E-05
-1.25660E-05
-3.51568E-06
-5.48300E-10
 3.51551E-06
 7.03187E-06
 4.50767E-05
 5.82714E-05
 2.68825E-05
 2.66293E-05
 SCALARS dual13 float  1                           
LOOKUP_TABLE default
 0.00000E+00
 0.00000E+00
 0.00000E+00
 0.00000E+00
 0.00000E+00
 0.00000E+00
 0.00000E+00
 0.00000E+00
 0.00000E+00
 0.00000E+00
 0.00000E+00
 0.00000E+00
 0.00000E+00
 0.00000E+00
 0.00000E+00
 0.00000E+00
 0.00000E+00
-1.94838E-04
 1.56187E-04
 0.00000E+00
 0.00000E+00
 0.00000E+00
 0.00000E+00
 0.00000E+00
 0.00000E+00
 0.00000E+00
 0.00000E+00
 0.00000E+00
 0.00000E+00
-2.71728E-04
 5.46227E-05
 0.00000E+00
 0.00000E+00
 0.00000E+00
 0.00000E+00
 0.00000E+00
 0.00000E+00
 0.00000E+00
 0.00000E+00
 0.00000E+00
 0.00000E+00
 0.00000E+00
 0.00000E+00
 0.00000E+00
 0.00000E+00
 0.00000E+00
 0.00000E+00
 0.00000E+00
 SCALARS dual14 float  1                           
LOOKUP_TABLE default
-8.75931E-06
-9.17729E-06
-1.73276E-05
-1.19499E-05
-7.42784E-06
-7.45320E-06
-1.77515E-05
-1.53662E-05
-8.75931E-06
-9.17729E-06
-1.73276E-05
-1.19499E-05
-1.40791E-05
-9.33125E-06
-1.17879E-05
-1.03518E-05
-7.73850E-06
-9.34204E-06
-1.14705E-05
-7.78528E-06
-1.40791E-05
-9.33125E-06
-1.17879E-05
-1.03518E-05
-1.81328E-05
-1.77313E-05
-1.07825E-05
-7.48832E-06
-1.76002E-05
-2.01079E-05
-9.78296E-06
-5.34913E-06
-1.81328E-05
-1.77313E-05
-1.07825E-05
-7.48832E-06
-1.96562E-05
-2.67015E-05
-1.18794E-05
-5.57798E-06
-2.67060E-05
-2.95911E-05
-1.41299E-05
-7.16920E-06
-1.96562E-05
-2.67015E-05
-1.18794E-05
-5.57798E-06
 SCALARS NLP float  1                              
LOOKUP_TABLE default
 0.00000E+00
 0.00000E+00
 0.00000E+00
 0.00000E+00
 0.00000E+00
 0.00000E+00
 0.00000E+00
 0.00000E+00
 0.00000E+00
 0.00000E+00
 0.00000E+00
 0.00000E+00
 0.00000E+00
 0.00000E+00
 0.00000E+00
 0.00000E+00
 0.00000E+00
 0.00000E+00
 0.00000E+00
 0.00000E+00
 0.00000E+00
 0.00000E+00
 0.00000E+00
 0.00000E+00
 0.00000E+00
 0.00000E+00
 0.00000E+00
 0.00000E+00
 0.00000E+00
 0.00000E+00
 0.00000E+00
 0.00000E+00
 0.00000E+00
 0.00000E+00
 0.00000E+00
 0.00000E+00
 0.00000E+00
 0.00000E+00
 0.00000E+00
 0.00000E+00
 0.00000E+00
 0.00000E+00
 0.00000E+00
 0.00000E+00
 0.00000E+00
 0.00000E+00
 0.00000E+00
 0.00000E+00
 SCALARS SM float  1                               
LOOKUP_TABLE default
 1.05000E+00
 1.05000E+00
 1.05000E+00
 1.05000E+00
 1.05000E+00
 1.05000E+00
 1.05000E+00
 1.05000E+00
 1.05000E+00
 1.05000E+00
 1.05000E+00
 1.05000E+00
 1.05000E+00
 1.05000E+00
 1.05000E+00
 1.05000E+00
 1.05000E+00
 1.05000E+00
 1.05000E+00
 1.05000E+00
 1.05000E+00
 1.05000E+00
 1.05000E+00
 1.05000E+00
 1.05000E+00
 1.05000E+00
 1.05000E+00
 1.05000E+00
 1.05000E+00
 1.05000E+00
 1.05000E+00
 1.05000E+00
 1.05000E+00
 1.05000E+00
 1.05000E+00
 1.05000E+00
 1.05000E+00
 1.05000E+00
 1.05000E+00
 1.05000E+00
 1.05000E+00
 1.05000E+00
 1.05000E+00
 1.05000E+00
 1.05000E+00
 1.05000E+00
 1.05000E+00
 1.05000E+00
 SCALARS gradient1 float  1                        
LOOKUP_TABLE default
 0.00000E+00
 0.00000E+00
 0.00000E+00
 0.00000E+00
 0.00000E+00
 0.00000E+00
 0.00000E+00
 0.00000E+00
 0.00000E+00
 0.00000E+00
 0.00000E+00
 0.00000E+00
 0.00000E+00
 0.00000E+00
 0.00000E+00
 0.00000E+00
 0.00000E+00
 0.00000E+00
 0.00000E+00
 0.00000E+00
 0.00000E+00
 0.00000E+00
 0.00000E+00
 0.00000E+00
 0.00000E+00
 0.00000E+00
 0.00000E+00
 0.00000E+00
 0.00000E+00
 0.00000E+00
 0.00000E+00
 0.00000E+00
 0.00000E+00
 0.00000E+00
 0.00000E+00
 0.00000E+00
 0.00000E+00
 0.00000E+00
 0.00000E+00
 0.00000E+00
 0.00000E+00
 0.00000E+00
 0.00000E+00
 0.00000E+00
 0.00000E+00
 0.00000E+00
 0.00000E+00
 0.00000E+00
 SCALARS gradient2 float  1                        
LOOKUP_TABLE default
 1.28739E-08
 1.56451E-08
 5.34905E-07
 2.51383E-08
 1.26203E-08
-9.34026E-07
 5.35762E-07
 5.91052E-07
 1.28739E-08
 1.56451E-08
 5.34905E-07
 2.51383E-08
 1.06081E-07
-7.14911E-07
-2.91461E-07
 1.51879E-07
-7.22292E-07
-2.32000E-06
-6.97041E-07
-2.12152E-07
 1.06081E-07
-7.14911E-07
-2.91461E-07
 1.51879E-07
 2.80514E-07
-1.62840E-07
-1.08481E-08
 6.71015E-08
-2.86709E-08
 6.36036E-07
-1.42727E-06
-8.55861E-08
 2.80514E-07
-1.62840E-07
-1.08481E-08
 6.71014E-08
 4.47367E-08
 9.58991E-07
 3.69046E-08
 5.78188E-08
 1.01782E-06
 8.71866E-07
 5.11423E-07
 2.53924E-08
 4.47367E-08
 9.58991E-07
 3.69046E-08
 5.78188E-08
