# vtk DataFile Version 2.0
Output of NLACE
ASCII
DATASET UNSTRUCTURED_GRID
POINTS         3721 FLOAT
 0.000000E+00  0.000000E+00  0.000000E+00
 1.666667E-02  0.000000E+00  0.000000E+00
 3.333333E-02  0.000000E+00  0.000000E+00
 5.000000E-02  0.000000E+00  0.000000E+00
 6.666667E-02  0.000000E+00  0.000000E+00
 8.333333E-02  0.000000E+00  0.000000E+00
 1.000000E-01  0.000000E+00  0.000000E+00
 1.166667E-01  0.000000E+00  0.000000E+00
 1.333333E-01  0.000000E+00  0.000000E+00
 1.500000E-01  0.000000E+00  0.000000E+00
 1.666667E-01  0.000000E+00  0.000000E+00
 1.833333E-01  0.000000E+00  0.000000E+00
 2.000000E-01  0.000000E+00  0.000000E+00
 2.166667E-01  0.000000E+00  0.000000E+00
 2.333333E-01  0.000000E+00  0.000000E+00
 2.500000E-01  0.000000E+00  0.000000E+00
 2.666667E-01  0.000000E+00  0.000000E+00
 2.833333E-01  0.000000E+00  0.000000E+00
 3.000000E-01  0.000000E+00  0.000000E+00
 3.166667E-01  0.000000E+00  0.000000E+00
 3.333333E-01  0.000000E+00  0.000000E+00
 3.500000E-01  0.000000E+00  0.000000E+00
 3.666667E-01  0.000000E+00  0.000000E+00
 3.833333E-01  0.000000E+00  0.000000E+00
 4.000000E-01  0.000000E+00  0.000000E+00
 4.166667E-01  0.000000E+00  0.000000E+00
 4.333333E-01  0.000000E+00  0.000000E+00
 4.500000E-01  0.000000E+00  0.000000E+00
 4.666667E-01  0.000000E+00  0.000000E+00
 4.833333E-01  0.000000E+00  0.000000E+00
 5.000000E-01  0.000000E+00  0.000000E+00
 5.166667E-01  0.000000E+00  0.000000E+00
 5.333333E-01  0.000000E+00  0.000000E+00
 5.500000E-01  0.000000E+00  0.000000E+00
 5.666667E-01  0.000000E+00  0.000000E+00
 5.833333E-01  0.000000E+00  0.000000E+00
 6.000000E-01  0.000000E+00  0.000000E+00
 6.166667E-01  0.000000E+00  0.000000E+00
 6.333333E-01  0.000000E+00  0.000000E+00
 6.500000E-01  0.000000E+00  0.000000E+00
 6.666667E-01  0.000000E+00  0.000000E+00
 6.833333E-01  0.000000E+00  0.000000E+00
 7.000000E-01  0.000000E+00  0.000000E+00
 7.166667E-01  0.000000E+00  0.000000E+00
 7.333333E-01  0.000000E+00  0.000000E+00
 7.500000E-01  0.000000E+00  0.000000E+00
 7.666667E-01  0.000000E+00  0.000000E+00
 7.833333E-01  0.000000E+00  0.000000E+00
 8.000000E-01  0.000000E+00  0.000000E+00
 8.166667E-01  0.000000E+00  0.000000E+00
 8.333333E-01  0.000000E+00  0.000000E+00
 8.500000E-01  0.000000E+00  0.000000E+00
 8.666667E-01  0.000000E+00  0.000000E+00
 8.833333E-01  0.000000E+00  0.000000E+00
 9.000000E-01  0.000000E+00  0.000000E+00
 9.166667E-01  0.000000E+00  0.000000E+00
 9.333333E-01  0.000000E+00  0.000000E+00
 9.500000E-01  0.000000E+00  0.000000E+00
 9.666667E-01  0.000000E+00  0.000000E+00
 9.833333E-01  0.000000E+00  0.000000E+00
 1.000000E+00  0.000000E+00  0.000000E+00
 0.000000E+00  1.666667E-02  0.000000E+00
 1.666667E-02  1.666667E-02  0.000000E+00
 3.333333E-02  1.666667E-02  0.000000E+00
 5.000000E-02  1.666667E-02  0.000000E+00
 6.666667E-02  1.666667E-02  0.000000E+00
 8.333333E-02  1.666667E-02  0.000000E+00
 1.000000E-01  1.666667E-02  0.000000E+00
 1.166667E-01  1.666667E-02  0.000000E+00
 1.333333E-01  1.666667E-02  0.000000E+00
 1.500000E-01  1.666667E-02  0.000000E+00
 1.666667E-01  1.666667E-02  0.000000E+00
 1.833333E-01  1.666667E-02  0.000000E+00
 2.000000E-01  1.666667E-02  0.000000E+00
 2.166667E-01  1.666667E-02  0.000000E+00
 2.333333E-01  1.666667E-02  0.000000E+00
 2.500000E-01  1.666667E-02  0.000000E+00
 2.666667E-01  1.666667E-02  0.000000E+00
 2.833333E-01  1.666667E-02  0.000000E+00
 3.000000E-01  1.666667E-02  0.000000E+00
 3.166667E-01  1.666667E-02  0.000000E+00
 3.333333E-01  1.666667E-02  0.000000E+00
 3.500000E-01  1.666667E-02  0.000000E+00
 3.666667E-01  1.666667E-02  0.000000E+00
 3.833333E-01  1.666667E-02  0.000000E+00
 4.000000E-01  1.666667E-02  0.000000E+00
 4.166667E-01  1.666667E-02  0.000000E+00
 4.333333E-01  1.666667E-02  0.000000E+00
 4.500000E-01  1.666667E-02  0.000000E+00
 4.666667E-01  1.666667E-02  0.000000E+00
 4.833333E-01  1.666667E-02  0.000000E+00
 5.000000E-01  1.666667E-02  0.000000E+00
 5.166667E-01  1.666667E-02  0.000000E+00
 5.333333E-01  1.666667E-02  0.000000E+00
 5.500000E-01  1.666667E-02  0.000000E+00
 5.666667E-01  1.666667E-02  0.000000E+00
 5.833333E-01  1.666667E-02  0.000000E+00
 6.000000E-01  1.666667E-02  0.000000E+00
 6.166667E-01  1.666667E-02  0.000000E+00
 6.333333E-01  1.666667E-02  0.000000E+00
 6.500000E-01  1.666667E-02  0.000000E+00
 6.666667E-01  1.666667E-02  0.000000E+00
 6.833333E-01  1.666667E-02  0.000000E+00
 7.000000E-01  1.666667E-02  0.000000E+00
 7.166667E-01  1.666667E-02  0.000000E+00
 7.333333E-01  1.666667E-02  0.000000E+00
 7.500000E-01  1.666667E-02  0.000000E+00
 7.666667E-01  1.666667E-02  0.000000E+00
 7.833333E-01  1.666667E-02  0.000000E+00
 8.000000E-01  1.666667E-02  0.000000E+00
 8.166667E-01  1.666667E-02  0.000000E+00
 8.333333E-01  1.666667E-02  0.000000E+00
 8.500000E-01  1.666667E-02  0.000000E+00
 8.666667E-01  1.666667E-02  0.000000E+00
 8.833333E-01  1.666667E-02  0.000000E+00
 9.000000E-01  1.666667E-02  0.000000E+00
 9.166667E-01  1.666667E-02  0.000000E+00
 9.333333E-01  1.666667E-02  0.000000E+00
 9.500000E-01  1.666667E-02  0.000000E+00
 9.666667E-01  1.666667E-02  0.000000E+00
 9.833333E-01  1.666667E-02  0.000000E+00
 1.000000E+00  1.666667E-02  0.000000E+00
 0.000000E+00  3.333333E-02  0.000000E+00
 1.666667E-02  3.333333E-02  0.000000E+00
 3.333333E-02  3.333333E-02  0.000000E+00
 5.000000E-02  3.333333E-02  0.000000E+00
 6.666667E-02  3.333333E-02  0.000000E+00
 8.333333E-02  3.333333E-02  0.000000E+00
 1.000000E-01  3.333333E-02  0.000000E+00
 1.166667E-01  3.333333E-02  0.000000E+00
 1.333333E-01  3.333333E-02  0.000000E+00
 1.500000E-01  3.333333E-02  0.000000E+00
 1.666667E-01  3.333333E-02  0.000000E+00
 1.833333E-01  3.333333E-02  0.000000E+00
 2.000000E-01  3.333333E-02  0.000000E+00
 2.166667E-01  3.333333E-02  0.000000E+00
 2.333333E-01  3.333333E-02  0.000000E+00
 2.500000E-01  3.333333E-02  0.000000E+00
 2.666667E-01  3.333333E-02  0.000000E+00
 2.833333E-01  3.333333E-02  0.000000E+00
 3.000000E-01  3.333333E-02  0.000000E+00
 3.166667E-01  3.333333E-02  0.000000E+00
 3.333333E-01  3.333333E-02  0.000000E+00
 3.500000E-01  3.333333E-02  0.000000E+00
 3.666667E-01  3.333333E-02  0.000000E+00
 3.833333E-01  3.333333E-02  0.000000E+00
 4.000000E-01  3.333333E-02  0.000000E+00
 4.166667E-01  3.333333E-02  0.000000E+00
 4.333333E-01  3.333333E-02  0.000000E+00
 4.500000E-01  3.333333E-02  0.000000E+00
 4.666667E-01  3.333333E-02  0.000000E+00
 4.833333E-01  3.333333E-02  0.000000E+00
 5.000000E-01  3.333333E-02  0.000000E+00
 5.166667E-01  3.333333E-02  0.000000E+00
 5.333333E-01  3.333333E-02  0.000000E+00
 5.500000E-01  3.333333E-02  0.000000E+00
 5.666667E-01  3.333333E-02  0.000000E+00
 5.833333E-01  3.333333E-02  0.000000E+00
 6.000000E-01  3.333333E-02  0.000000E+00
 6.166667E-01  3.333333E-02  0.000000E+00
 6.333333E-01  3.333333E-02  0.000000E+00
 6.500000E-01  3.333333E-02  0.000000E+00
 6.666667E-01  3.333333E-02  0.000000E+00
 6.833333E-01  3.333333E-02  0.000000E+00
 7.000000E-01  3.333333E-02  0.000000E+00
 7.166667E-01  3.333333E-02  0.000000E+00
 7.333333E-01  3.333333E-02  0.000000E+00
 7.500000E-01  3.333333E-02  0.000000E+00
 7.666667E-01  3.333333E-02  0.000000E+00
 7.833333E-01  3.333333E-02  0.000000E+00
 8.000000E-01  3.333333E-02  0.000000E+00
 8.166667E-01  3.333333E-02  0.000000E+00
 8.333333E-01  3.333333E-02  0.000000E+00
 8.500000E-01  3.333333E-02  0.000000E+00
 8.666667E-01  3.333333E-02  0.000000E+00
 8.833333E-01  3.333333E-02  0.000000E+00
 9.000000E-01  3.333333E-02  0.000000E+00
 9.166667E-01  3.333333E-02  0.000000E+00
 9.333333E-01  3.333333E-02  0.000000E+00
 9.500000E-01  3.333333E-02  0.000000E+00
 9.666667E-01  3.333333E-02  0.000000E+00
 9.833333E-01  3.333333E-02  0.000000E+00
 1.000000E+00  3.333333E-02  0.000000E+00
 0.000000E+00  5.000000E-02  0.000000E+00
 1.666667E-02  5.000000E-02  0.000000E+00
 3.333333E-02  5.000000E-02  0.000000E+00
 5.000000E-02  5.000000E-02  0.000000E+00
 6.666667E-02  5.000000E-02  0.000000E+00
 8.333333E-02  5.000000E-02  0.000000E+00
 1.000000E-01  5.000000E-02  0.000000E+00
 1.166667E-01  5.000000E-02  0.000000E+00
 1.333333E-01  5.000000E-02  0.000000E+00
 1.500000E-01  5.000000E-02  0.000000E+00
 1.666667E-01  5.000000E-02  0.000000E+00
 1.833333E-01  5.000000E-02  0.000000E+00
 2.000000E-01  5.000000E-02  0.000000E+00
 2.166667E-01  5.000000E-02  0.000000E+00
 2.333333E-01  5.000000E-02  0.000000E+00
 2.500000E-01  5.000000E-02  0.000000E+00
 2.666667E-01  5.000000E-02  0.000000E+00
 2.833333E-01  5.000000E-02  0.000000E+00
 3.000000E-01  5.000000E-02  0.000000E+00
 3.166667E-01  5.000000E-02  0.000000E+00
 3.333333E-01  5.000000E-02  0.000000E+00
 3.500000E-01  5.000000E-02  0.000000E+00
 3.666667E-01  5.000000E-02  0.000000E+00
 3.833333E-01  5.000000E-02  0.000000E+00
 4.000000E-01  5.000000E-02  0.000000E+00
 4.166667E-01  5.000000E-02  0.000000E+00
 4.333333E-01  5.000000E-02  0.000000E+00
 4.500000E-01  5.000000E-02  0.000000E+00
 4.666667E-01  5.000000E-02  0.000000E+00
 4.833333E-01  5.000000E-02  0.000000E+00
 5.000000E-01  5.000000E-02  0.000000E+00
 5.166667E-01  5.000000E-02  0.000000E+00
 5.333333E-01  5.000000E-02  0.000000E+00
 5.500000E-01  5.000000E-02  0.000000E+00
 5.666667E-01  5.000000E-02  0.000000E+00
 5.833333E-01  5.000000E-02  0.000000E+00
 6.000000E-01  5.000000E-02  0.000000E+00
 6.166667E-01  5.000000E-02  0.000000E+00
 6.333333E-01  5.000000E-02  0.000000E+00
 6.500000E-01  5.000000E-02  0.000000E+00
 6.666667E-01  5.000000E-02  0.000000E+00
 6.833333E-01  5.000000E-02  0.000000E+00
 7.000000E-01  5.000000E-02  0.000000E+00
 7.166667E-01  5.000000E-02  0.000000E+00
 7.333333E-01  5.000000E-02  0.000000E+00
 7.500000E-01  5.000000E-02  0.000000E+00
 7.666667E-01  5.000000E-02  0.000000E+00
 7.833333E-01  5.000000E-02  0.000000E+00
 8.000000E-01  5.000000E-02  0.000000E+00
 8.166667E-01  5.000000E-02  0.000000E+00
 8.333333E-01  5.000000E-02  0.000000E+00
 8.500000E-01  5.000000E-02  0.000000E+00
[...]
POINT_DATA         3721
 SCALARS measuredDisp11 float  1                   
LOOKUP_TABLE default
-1.08148E-03
-1.04685E-03
-1.01205E-03
-9.76992E-04
-9.41587E-04
-9.05791E-04
-8.69586E-04
-8.32975E-04
-7.95982E-04
-7.58651E-04
-7.21040E-04
-6.83217E-04
-6.45261E-04
-6.07253E-04
-5.69275E-04
-5.31407E-04
-4.93722E-04
-4.56287E-04
-4.19154E-04
-3.82367E-04
-3.45955E-04
-3.09932E-04
-2.74302E-04
-2.39053E-04
-2.04163E-04
-1.69600E-04
-1.35322E-04
-1.01280E-04
-6.74192E-05
-3.36801E-05
 0.00000E+00
 3.36845E-05
 6.74369E-05
 1.01320E-04
 1.35391E-04
 1.69705E-04
 2.04311E-04
 2.39248E-04
 2.74547E-04
 3.10229E-04
 3.46302E-04
 3.82761E-04
 4.19590E-04
 4.56757E-04
 4.94218E-04
 5.31918E-04
 5.69790E-04
 6.07759E-04
 6.45746E-04
 6.83669E-04
 7.21446E-04
 7.59002E-04
 7.96268E-04
 8.33189E-04
 8.69723E-04
 9.05846E-04
 9.41557E-04
 9.76874E-04
 1.01184E-03
 1.04654E-03
 1.08109E-03
-1.08136E-03
-1.04676E-03
-1.01199E-03
-9.76947E-04
-9.41553E-04
-9.05764E-04
-8.69560E-04
-8.32945E-04
-7.95945E-04
-7.58603E-04
-7.20977E-04
-6.83139E-04
-6.45166E-04
-6.07140E-04
-5.69146E-04
-5.31263E-04
-4.93566E-04
-4.56120E-04
-4.18982E-04
-3.82192E-04
-3.45781E-04
-3.09762E-04
-2.74139E-04
-2.38902E-04
-2.04025E-04
-1.69479E-04
-1.35219E-04
-1.01197E-04
-6.73576E-05
-3.36408E-05
 1.61210E-08
 3.36771E-05
 6.74057E-05
 1.01265E-04
 1.35313E-04
 1.69605E-04
 2.04190E-04
 2.39107E-04
 2.74389E-04
 3.10057E-04
 3.46118E-04
 3.82570E-04
 4.19395E-04
 4.56563E-04
 4.94029E-04
 5.31737E-04
 5.69620E-04
 6.07604E-04
 6.45608E-04
 6.83549E-04
 7.21346E-04
 7.58921E-04
 7.96205E-04
 8.33142E-04
 8.69689E-04
 9.05824E-04
 9.41541E-04
 9.76862E-04
 1.01183E-03
 1.04654E-03
 1.08109E-03
-1.08114E-03
-1.04659E-03
-1.01186E-03
-9.76848E-04
-9.41473E-04
-9.05688E-04
-8.69474E-04
-8.32837E-04
-7.95804E-04
-7.58420E-04
-7.20746E-04
-6.82855E-04
-6.44828E-04
-6.06751E-04
-5.68710E-04
-5.30786E-04
-4.93056E-04
-4.55589E-04
-4.18439E-04
-3.81648E-04
-3.45248E-04
-3.09251E-04
-2.73659E-04
-2.38461E-04
-2.03632E-04
-1.69139E-04
-1.34939E-04
-1.00980E-04
-6.72065E-05
-3.35580E-05
 2.93833E-08
 3.36203E-05
 6.72792E-05
 1.01070E-04
 1.35052E-04
 1.69281E-04
 2.03808E-04
 2.38673E-04
 2.73911E-04
 3.09542E-04
 3.45577E-04
 3.82014E-04
 4.18835E-04
 4.56010E-04
 4.93495E-04
 5.31233E-04
 5.69155E-04
 6.07185E-04
 6.45241E-04
 6.83236E-04
 7.21086E-04
 7.58713E-04
 7.96043E-04
 8.33018E-04
 8.69595E-04
 9.05747E-04
 9.41470E-04
 9.76785E-04
 1.01174E-03
 1.04641E-03
 1.08092E-03
-1.08081E-03
-1.04632E-03
-1.01166E-03
-9.76693E-04
-9.41342E-04
-9.05559E-04
-8.69324E-04
-8.32646E-04
-7.95554E-04
-7.58097E-04
-7.20341E-04
-6.82361E-04
-6.44245E-04
-6.06082E-04
-5.67962E-04
-5.29971E-04
-4.92190E-04
-4.54688E-04
-4.17522E-04
-3.80734E-04
-3.44355E-04
-3.08397E-04
-2.72861E-04
-2.37732E-04
-2.02985E-04
-1.68583E-04
-1.34482E-04
-1.00630E-04
-6.69666E-05
-3.34318E-05
 4.00538E-08
 3.35150E-05
 6.70588E-05
 1.00737E-04
 1.34610E-04
 1.68736E-04
 2.03167E-04
 2.37947E-04
 2.73111E-04
 3.08684E-04
 3.44677E-04
 3.81089E-04
 4.17905E-04
 4.55095E-04
 4.92613E-04
 5.30401E-04
 5.68389E-04
 6.06497E-04
 6.44638E-04
 6.82722E-04
 7.20661E-04
 7.58371E-04
 7.95775E-04
 8.32810E-04
 8.69431E-04
 9.05608E-04
 9.41336E-04
 9.76634E-04
 1.01155E-03
 1.04616E-03
 1.08061E-03
-1.08035E-03
-1.04596E-03
-1.01138E-03
-9.76471E-04
-9.41151E-04
-9.05367E-04
-8.69101E-04
-8.32363E-04
-7.95187E-04
-7.57627E-04
-7.19753E-04
-6.81649E-04
-6.43406E-04
-6.05123E-04
-5.66894E-04
-5.28812E-04
-4.90960E-04
-4.53412E-04
-4.16226E-04
-3.79446E-04
-3.43100E-04
-3.07201E-04
-2.71745E-04
-2.36716E-04
-2.02085E-04
-1.67813E-04
-1.33852E-04
-1.00148E-04
-6.66391E-05
-3.32625E-05
 4.89681E-08
 3.33630E-05
 6.67471E-05
 1.00268E-04
 1.33990E-04
 1.67973E-04
 2.02271E-04
 2.36932E-04
 2.71993E-04
 3.07482E-04
 3.43416E-04
 3.79793E-04
 4.16601E-04
 4.53811E-04
 4.91375E-04
 5.29233E-04
 5.67313E-04
 6.05529E-04
 6.43790E-04
 6.81998E-04
 7.20060E-04
 7.57884E-04
 7.95390E-04
 8.32508E-04
 8.69187E-04
 9.05396E-04
 9.41126E-04
 9.76396E-04
 1.01125E-03
 1.04579E-03
 1.08013E-03
-1.07972E-03
-1.04546E-03
-1.01099E-03
-9.76164E-04
-9.40883E-04
-9.05097E-04
-8.68790E-04
-8.31975E-04
-7.94690E-04
-7.56996E-04
-7.18970E-04
-6.80705E-04
-6.42300E-04
-6.03862E-04
-5.65495E-04
-5.27296E-04
-4.89357E-04
-4.51753E-04
-4.14546E-04
-3.77780E-04
-3.41482E-04
-3.05662E-04
-2.70313E-04
-2.35416E-04
-2.00937E-04
-1.66833E-04
-1.33052E-04
-9.95378E-05
-6.62259E-05
-3.30506E-05
 5.72513E-08
 3.31670E-05
 6.63483E-05
 9.96702E-05
 1.33199E-04
 1.66997E-04
 2.01124E-04
 2.35630E-04
 2.70557E-04
 3.05937E-04
 3.41790E-04
 3.78120E-04
 4.14916E-04
 4.52148E-04
 4.89769E-04
 5.27717E-04
 5.65914E-04
 6.04269E-04
 6.42682E-04
 6.81050E-04
 7.19269E-04
 7.57240E-04
 7.94874E-04
 8.32095E-04
 8.68848E-04
 9.05095E-04
 9.40825E-04
 9.76055E-04
 1.01084E-03
 1.04526E-03
 1.07947E-03
-1.07891E-03
-1.04481E-03
-1.01048E-03
-9.75749E-04
-9.40516E-04
-9.04728E-04
-8.68371E-04
-8.31461E-04
-7.94044E-04
-7.56186E-04
-7.17975E-04
-6.79513E-04
-6.40911E-04
-6.02285E-04
-5.63749E-04
-5.25412E-04
-4.87369E-04
-4.49702E-04
-4.12475E-04
-3.75733E-04
-3.39500E-04
-3.03783E-04
-2.68571E-04
-2.33838E-04
-1.99547E-04
-1.65649E-04
-1.32089E-04
-9.88051E-05
-6.57305E-05
-3.27971E-05
 6.62032E-08
 3.29308E-05
 6.58681E-05
 9.89496E-05
 1.32244E-04
 1.65818E-04
 1.99734E-04
 2.34048E-04
 2.68808E-04
 3.04050E-04
 3.39801E-04
 3.76067E-04
 4.12841E-04
 4.50096E-04
 4.87784E-04
 5.25839E-04
 5.64177E-04
 6.02700E-04
 6.41299E-04
 6.79861E-04
 7.18270E-04
 7.56418E-04
 7.94207E-04
 8.31552E-04
 8.68391E-04
 9.04682E-04
 9.40409E-04
 9.75588E-04
 1.01027E-03
 1.04456E-03
 1.07860E-03
-1.07787E-03
-1.04397E-03
-1.00981E-03
-9.75191E-04
-9.40017E-04
-9.04230E-04
-8.67816E-04
-8.30797E-04
-7.93225E-04
-7.55176E-04
-7.16748E-04
-6.78054E-04
-6.39220E-04
-6.00373E-04
-5.61641E-04
-5.23143E-04
-4.84983E-04
-4.47250E-04
-4.10008E-04
-3.73303E-04
-3.37156E-04
-3.01569E-04
-2.66526E-04
-2.31994E-04
-1.97928E-04
-1.64275E-04
-1.30974E-04
-9.79577E-05
-6.51583E-05
-3.25042E-05
 7.72589E-08
 3.26592E-05
 6.53146E-05
 9.81170E-05
 1.31138E-04
 1.64448E-04
 1.98114E-04
 2.32198E-04
 2.66754E-04
 3.01826E-04
 3.37446E-04
 3.73629E-04
 4.10370E-04
 4.47645E-04
 4.85405E-04
 5.23582E-04
 5.62083E-04
 6.00803E-04
 6.39621E-04
 6.78410E-04
 7.17042E-04
 7.55397E-04
 7.93365E-04
 8.30852E-04
 8.67789E-04
 9.04126E-04
 9.39846E-04
 9.74962E-04
 1.00953E-03
 1.04365E-03
 1.07750E-03
-1.07655E-03
-1.04289E-03
-1.00892E-03
-9.74446E-04
-9.39344E-04
-9.03562E-04
-8.67087E-04
-8.29948E-04
-7.92202E-04
-7.53937E-04
-7.15261E-04
-6.76303E-04
-6.37202E-04
-5.98104E-04
-5.59150E-04
-5.20473E-04
-4.82187E-04
-4.44387E-04
-4.07140E-04
-3.70491E-04
-3.34456E-04
-2.99032E-04
-2.64193E-04
-2.29899E-04
-1.96097E-04
-1.62726E-04
-1.29720E-04
-9.70077E-05
-6.45172E-05
-3.21753E-05
 9.19776E-08
 3.23585E-05
 6.46985E-05
 9.71869E-05
 1.29898E-04
 1.62906E-04
 1.96282E-04
 2.30096E-04
 2.64409E-04
 2.99275E-04
 3.34733E-04
 3.70806E-04
 4.07497E-04
 4.44784E-04
 4.82619E-04
 5.20928E-04
 5.59614E-04
 5.98558E-04
 6.37625E-04
 6.76673E-04
 7.15559E-04
 7.54147E-04
 7.92316E-04
 8.29961E-04
 8.67003E-04
 9.03389E-04
 9.39095E-04
 9.74134E-04
 1.00856E-03
 1.04249E-03
 1.07611E-03
-1.07489E-03
-1.04151E-03
-1.00777E-03
-9.73454E-04
-9.38441E-04
-9.02671E-04
-8.66137E-04
-8.28870E-04
-7.90937E-04
-7.52434E-04
-7.13484E-04
-6.74232E-04
-6.34834E-04
-5.95456E-04
-5.56257E-04
-5.17386E-04
-4.78969E-04
-4.41107E-04
-4.03872E-04
-3.67303E-04
-3.31413E-04
-2.96188E-04
-2.61593E-04
-2.27577E-04
-1.94078E-04
-1.61027E-04
-1.28350E-04
-9.59718E-05
-6.38185E-05
-3.18153E-05
 1.12035E-07
 3.20373E-05
 6.40344E-05
 9.61791E-05
 1.28547E-04
 1.61217E-04
 1.94264E-04
 2.27767E-04
 2.61795E-04
 2.96412E-04
 3.31671E-04
 3.67602E-04
 4.04219E-04
 4.41504E-04
 4.79411E-04
 5.17862E-04
 5.56750E-04
 5.95941E-04
 6.35286E-04
 6.74623E-04
 7.13790E-04
 7.52636E-04
 7.91022E-04
 8.28835E-04
 8.65986E-04
 9.02416E-04
 9.38099E-04
 9.73044E-04
 1.00731E-03
 1.04101E-03
 1.07437E-03
-1.07281E-03
-1.03974E-03
-1.00626E-03
-9.72136E-04
-9.37232E-04
-9.01489E-04
-8.64904E-04
-8.27511E-04
-7.89383E-04
-7.50628E-04
-7.11383E-04
-6.71810E-04
-6.32088E-04
-5.92404E-04
-5.52942E-04
-5.13866E-04
-4.75319E-04
-4.37410E-04
-4.00209E-04
-3.63755E-04
-3.28050E-04
-2.93067E-04
-2.58760E-04
-2.25065E-04
-1.91908E-04
-1.59210E-04
-1.26892E-04
-9.48732E-05
-6.30779E-05
-3.14315E-05
 1.39197E-07
 3.17060E-05
 6.33412E-05
 9.51196E-05
 1.27118E-04
 1.59416E-04
 1.92098E-04
 2.25246E-04
 2.58944E-04
 2.93267E-04
 3.28280E-04
 3.64030E-04
 4.00541E-04
 4.37803E-04
 4.75772E-04
 5.14367E-04
 5.53470E-04
 5.92931E-04
 6.32580E-04
 6.72232E-04
 7.11703E-04
 7.50823E-04
 7.89437E-04
 8.27419E-04
 8.64675E-04
 9.01140E-04
 9.36785E-04
 9.71618E-04
 1.00570E-03
 1.03914E-03
 1.07221E-03
-1.07022E-03
-1.03749E-03
-1.00430E-03
-9.70393E-04
-9.35621E-04
-8.99928E-04
-8.63308E-04
-8.25801E-04
-7.87483E-04
-7.48471E-04
-7.08917E-04
-6.69004E-04
-6.28935E-04
-5.88927E-04
-5.49187E-04
-5.09904E-04
-4.71237E-04
-4.33301E-04
-3.96169E-04
-3.59872E-04
-3.24400E-04
-2.89711E-04
-2.55742E-04
-2.22413E-04
-1.89636E-04
-1.57322E-04
-1.25386E-04
-9.37427E-05
-6.23163E-05
-3.10336E-05
 1.75255E-07
 3.13781E-05
 6.26433E-05
 9.40427E-05
 1.25652E-04
 1.57553E-04
 1.89833E-04
 2.22585E-04
 2.55903E-04
 2.89878E-04
 3.24593E-04
 3.60113E-04
 3.96474E-04
 4.33682E-04
 4.71696E-04
 5.10431E-04
 5.49757E-04
 5.89505E-04
 6.29479E-04
 6.69467E-04
 7.09259E-04
 7.48661E-04
 7.87503E-04
 8.25648E-04
 8.62993E-04
 8.99474E-04
 9.35058E-04
 9.69755E-04
 1.00362E-03
 1.03679E-03
 1.06952E-03
-1.06697E-03
-1.03462E-03
-1.00176E-03
-9.68092E-04
-9.33484E-04
-8.97872E-04
-8.61251E-04
-8.23656E-04
-7.85168E-04
-7.45908E-04
-7.06043E-04
-6.65779E-04
-6.25350E-04
-5.85003E-04
-5.44980E-04
-5.05496E-04
-4.66727E-04
-4.28799E-04
-3.91783E-04
-3.55698E-04
-3.20518E-04
-2.86182E-04
-2.52604E-04
-2.19686E-04
-1.87325E-04
-1.55422E-04
-1.23882E-04
-9.26200E-05
-6.15606E-05
-3.06346E-05
 2.21919E-07
 3.10699E-05
 6.19712E-05
 9.29918E-05
 1.24204E-04
 1.55689E-04
 1.87539E-04
 2.19853E-04
 2.52739E-04
 2.86308E-04
 3.20662E-04
 3.55888E-04
 3.92047E-04
 4.29156E-04
 4.67186E-04
 5.06047E-04
 5.45597E-04
 5.85643E-04
 6.25957E-04
 6.66295E-04
 7.06415E-04
 7.46096E-04
 7.85152E-04
 8.23435E-04
 8.60841E-04
 8.97305E-04
 9.32799E-04
 9.67332E-04
 1.00096E-03
 1.03382E-03
 1.06620E-03
-1.06293E-03
-1.03097E-03
-9.98455E-04
-9.65068E-04
-9.30664E-04
-8.95181E-04
-8.58608E-04
-8.20975E-04
-7.82356E-04
-7.42875E-04
-7.02714E-04
-6.62102E-04
-6.21308E-04
-5.80619E-04
-5.40317E-04
-5.00648E-04
-4.61811E-04
-4.23939E-04
-3.87100E-04
-3.51297E-04
-3.16481E-04
-2.82564E-04
-2.49436E-04
-2.16975E-04
-1.85062E-04
-1.53585E-04
-1.22445E-04
-9.15555E-05
-6.08449E-05
-3.02512E-05
 2.80636E-07
 3.08013E-05
 6.13622E-05
 9.20207E-05
 1.22842E-04
 1.53905E-04
 1.85302E-04
 2.17141E-04
 2.49544E-04
 2.82641E-04
 3.16561E-04
 3.51419E-04
 3.87303E-04
 4.24256E-04
 4.62257E-04
 5.01221E-04
 5.40985E-04
 5.81330E-04
 6.21991E-04
 6.62681E-04
 7.03122E-04
 7.43064E-04
 7.82301E-04
 8.20679E-04
 8.58097E-04
 8.94495E-04
 9.29854E-04
 9.64188E-04
 9.97554E-04
 1.03009E-03
 1.06209E-03
-1.05789E-03
-1.02634E-03
-9.94189E-04
-9.61111E-04
-9.26961E-04
-8.91674E-04
-8.55225E-04
-8.17629E-04
-7.78946E-04
-7.39298E-04
-6.98876E-04
-6.57937E-04
-6.16789E-04
-5.75770E-04
-5.35208E-04
-4.95388E-04
-4.56533E-04
-4.18785E-04
-3.82202E-04
-3.46766E-04
-3.12397E-04
-2.78974E-04
-2.46356E-04
-2.14395E-04
-1.82953E-04
-1.51907E-04
-1.21155E-04
-9.06110E-05
-6.02113E-05
-2.99042E-05
 3.52330E-07
 3.05950E-05
 6.08611E-05
 9.11948E-05
 1.21651E-04
 1.52301E-04
 1.83236E-04
 2.14571E-04
 2.46439E-04
 2.78995E-04
 3.12397E-04
 3.46796E-04
 3.82318E-04
 4.19035E-04
 4.56948E-04
 4.95970E-04
 5.35926E-04
 5.76560E-04
 6.17560E-04
 6.58590E-04
 6.99327E-04
 7.39487E-04
 7.78847E-04
 8.17252E-04
 8.54607E-04
 8.90870E-04
 9.26036E-04
 9.60128E-04
 9.93205E-04
 1.02540E-03
 1.05702E-03
-1.05163E-03
-1.02048E-03
-9.88701E-04
-9.55965E-04
-9.22132E-04
-8.87128E-04
-8.50910E-04
-8.13461E-04
-7.74818E-04
-7.35088E-04
-6.94471E-04
-6.53251E-04
-6.11785E-04
-5.70467E-04
-5.29684E-04
-4.89768E-04
-4.50968E-04
-4.13433E-04
-3.77206E-04
-3.42240E-04
-3.08414E-04
-2.75566E-04
-2.43517E-04
-2.12092E-04
-1.81132E-04
-1.50505E-04
-1.20107E-04
-8.98604E-05
-5.97099E-05
-2.96190E-05
 4.37067E-07
 3.04768E-05
 6.05192E-05
 9.05906E-05
 1.20731E-04
 1.50999E-04
 1.81482E-04
 2.12295E-04
 2.43585E-04
 2.75529E-04
 3.08320E-04
 3.42155E-04
 3.77204E-04
 4.13584E-04
 4.51323E-04
 4.90340E-04
 5.30443E-04
 5.71335E-04
 6.12648E-04
 6.53983E-04
 6.94964E-04
 7.35272E-04
 7.74667E-04
 8.12996E-04
 8.50184E-04
 8.86216E-04
 9.21112E-04
 9.54912E-04
 9.87677E-04
 1.01953E-03
 1.05079E-03
-1.04387E-03
-1.01310E-03
-9.81682E-04
-9.49320E-04
-9.15878E-04
-8.81271E-04
-8.45423E-04
-8.08272E-04
-7.69814E-04
-7.30133E-04
-6.89429E-04
-6.48013E-04
-6.06296E-04
-5.64745E-04
-5.23813E-04
-4.83884E-04
-4.45240E-04
-4.08033E-04
-3.72286E-04
-3.37909E-04
-3.04732E-04
-2.72541E-04
-2.41114E-04
-2.10246E-04
-1.79759E-04
-1.49516E-04
-1.19415E-04
-8.93889E-05
-5.93980E-05
-2.94251E-05
 5.33639E-07
 3.04744E-05
 6.03933E-05
 9.02946E-05
 1.20197E-04
 1.50144E-04
 1.80208E-04
 2.10504E-04
 2.41185E-04
 2.72452E-04
 3.04536E-04
 3.37685E-04
 3.72131E-04
 4.08045E-04
 4.45495E-04
 4.84413E-04
 5.24587E-04
 5.65675E-04
 6.07243E-04
 6.48814E-04
 6.89952E-04
 7.30299E-04
 7.69601E-04
 8.07715E-04
 8.44597E-04
 8.80274E-04
 9.14805E-04
 9.48254E-04
 9.80688E-04
 1.01222E-03
 1.04314E-03
-1.03433E-03
-1.00385E-03
-9.72776E-04
-9.40812E-04
-9.07845E-04
-8.73772E-04
-8.38468E-04
-8.01807E-04
-7.63728E-04
-7.24279E-04
-6.83655E-04
-6.42186E-04
-6.00341E-04
-5.58674E-04
-5.17714E-04
-4.77899E-04
-4.39545E-04
-4.02810E-04
-3.67688E-04
-3.34033E-04
-3.01612E-04
-2.70153E-04
-2.39385E-04
-2.09072E-04
-1.79023E-04
-1.49097E-04
-1.19204E-04
-8.92905E-05
-5.93393E-05
-2.93557E-05
 6.39125E-07
 3.06155E-05
 6.05431E-05
 9.03998E-05
 1.20179E-04
 1.49899E-04
 1.79615E-04
 2.09428E-04
 2.39496E-04
 2.70036E-04
 3.01320E-04
 3.33655E-04
 3.67346E-04
 4.02638E-04
 4.39650E-04
 4.78330E-04
 5.18449E-04
 5.59623E-04
 6.01335E-04
 6.43019E-04
 6.84174E-04
 7.24403E-04
 7.63441E-04
 8.01161E-04
 8.37564E-04
 8.72734E-04
 9.06787E-04
 9.39823E-04
 9.71917E-04
 1.00316E-03
 1.03382E-03
-1.02267E-03
-9.92393E-04
-9.61590E-04
-9.30033E-04
-8.97625E-04
-8.64236E-04
-8.29675E-04
-7.93732E-04
-7.56271E-04
-7.17302E-04
-6.77010E-04
-6.35721E-04
-5.93961E-04
-5.52385E-04
-5.11593E-04
-4.72074E-04
-4.34186E-04
-3.98094E-04
-3.63756E-04
-3.30959E-04
-2.99394E-04
-2.68719E-04
-2.38616E-04
-2.08819E-04
-1.79132E-04
-1.49419E-04
-1.19606E-04
-8.96637E-05
-5.95995E-05
-2.94459E-05
 7.48486E-07
 3.09257E-05
 6.10268E-05
 9.09999E-05
 1.20808E-04
 1.50439E-04
 1.79921E-04
 2.09335E-04
 2.38826E-04
 2.68623E-04
 2.99034E-04
 3.30431E-04
 3.63207E-04
 3.97697E-04
 4.34084E-04
 4.72331E-04
 5.12191E-04
 5.53252E-04
 5.94911E-04
 6.36497E-04
 6.77450E-04
 7.17348E-04
 7.55905E-04
 7.93015E-04
 8.28737E-04
 8.63232E-04
 8.96687E-04
 9.29250E-04
 9.61010E-04
 9.92033E-04
 1.02253E-03
-1.00858E-03
-9.78346E-04
-9.47722E-04
-9.16553E-04
-8.84766E-04
-8.52201E-04
-8.18583E-04
-7.83596E-04
-7.47018E-04
-7.08844E-04
-6.69257E-04
-6.28531E-04
-5.87222E-04
-5.46103E-04
-5.05800E-04
-4.66833E-04
-4.29625E-04
-3.94364E-04
-3.60968E-04
-3.29146E-04
-2.98501E-04
-2.68618E-04
-2.39133E-04
-2.09762E-04
-1.80308E-04
-1.50655E-04
-1.20754E-04
-9.06034E-05
-6.02416E-05
-2.97300E-05
 8.54307E-07
 3.14252E-05
 6.18947E-05
 9.21802E-05
 1.22211E-04
 1.51941E-04
 1.81361E-04
 2.10517E-04
 2.39532E-04
 2.68629E-04
 2.98142E-04
 3.28508E-04
 3.60222E-04
 3.93727E-04
 4.29275E-04
 4.66817E-04
 5.06082E-04
 5.46684E-04
 5.87939E-04
 6.29061E-04
 6.69484E-04
 7.08769E-04
 7.46593E-04
 7.82859E-04
 8.17695E-04
 8.51351E-04
 8.84101E-04
 9.16152E-04
 9.47609E-04
 9.78512E-04
 1.00899E-03
-9.91790E-04
-9.61403E-04
-9.30813E-04
-8.99961E-04
-8.68804E-04
-8.37147E-04
-8.04620E-04
-7.70784E-04
-7.35325E-04
-6.98301E-04
-6.59970E-04
-6.20444E-04
-5.80229E-04
-5.40215E-04
-5.00925E-04
-4.62858E-04
-4.26567E-04
-3.92308E-04
-3.59968E-04
-3.29177E-04
-2.99444E-04
-2.70283E-04
-2.41292E-04
-2.12180E-04
-1.82767E-04
-1.52966E-04
-1.22762E-04
-9.21899E-05
-6.13182E-05
-3.02380E-05
 9.46820E-07
 3.21245E-05
 6.31809E-05
 9.40048E-05
 1.24493E-04
 1.54560E-04
 1.84154E-04
 2.13274E-04
 2.42003E-04
 2.70537E-04
 2.99216E-04
 3.28534E-04
 3.59097E-04
 3.91473E-04
 4.25981E-04
 4.62470E-04
 5.00589E-04
 5.40114E-04
 5.80334E-04
 6.20363E-04
 6.59757E-04
 6.98088E-04
 7.34926E-04
 7.70146E-04
 8.03932E-04
 8.36635E-04
 8.68621E-04
 9.00165E-04
 9.31395E-04
 9.62319E-04
 9.92979E-04
-9.72164E-04
-9.41380E-04
-9.10624E-04
-8.79941E-04
-8.49317E-04
-8.18519E-04
-7.87082E-04
-7.54452E-04
-7.20223E-04
-6.84656E-04
-6.48325E-04
-6.11080E-04
-5.73151E-04
-5.35395E-04
-4.97960E-04
-4.61241E-04
-4.26076E-04
-3.92894E-04
-3.61603E-04
-3.31766E-04
-3.02806E-04
-2.74173E-04
-2.45440E-04
-2.16327E-04
-1.86687E-04
-1.56473E-04
-1.25711E-04
-9.44739E-05
-6.28612E-05
-3.09899E-05
 1.01434E-06
 3.30203E-05
 6.48939E-05
 9.65011E-05
 1.27710E-04
 1.58400E-04
 1.88472E-04
 2.17871E-04
 2.46619E-04
 2.74862E-04
 3.02922E-04
 3.31329E-04
 3.60796E-04
 3.92018E-04
 4.25375E-04
 4.60440E-04
 4.96559E-04
 5.33879E-04
 5.71867E-04
 6.09730E-04
 6.47366E-04
 6.84376E-04
 7.20053E-04
 7.54147E-04
 7.86859E-04
 8.18621E-04
 8.49891E-04
 8.81016E-04
 9.12152E-04
 9.43283E-04
 9.74349E-04
-9.49782E-04
-9.18333E-04
-8.87153E-04
-8.56388E-04
-8.26036E-04
-7.95810E-04
-7.65132E-04
-7.33419E-04
-7.00288E-04
-6.66345E-04
-6.32660E-04
-5.99423E-04
-5.66463E-04
-5.32835E-04
-4.98543E-04
-4.63734E-04
-4.29747E-04
-3.97452E-04
-3.66922E-04
-3.37716E-04
-3.09181E-04
-2.80710E-04
-2.51862E-04
-2.22383E-04
-1.92170E-04
-1.61226E-04
-1.29620E-04
-9.74592E-05
-6.48708E-05
-3.19902E-05
 1.04420E-06
 3.40909E-05
 6.70059E-05
 9.96425E-05
 1.31850E-04
 1.63480E-04
 1.94392E-04
 2.24475E-04
 2.53681E-04
 2.82082E-04
 3.09954E-04
 3.37852E-04
 3.66597E-04
 3.96928E-04
 4.29201E-04
 4.62532E-04
 4.95686E-04
 5.28751E-04
 5.61766E-04
 5.95918E-04
 6.30793E-04
 6.66114E-04
 7.00711E-04
 7.33930E-04
 7.65848E-04
 7.96922E-04
 8.27701E-04
 8.58614E-04
 8.89866E-04
 9.21432E-04
 9.53157E-04
-9.25065E-04
-8.92682E-04
-8.60778E-04
-8.29571E-04
-7.99035E-04
-7.68762E-04
-7.37922E-04
-7.05935E-04
-6.73257E-04
-6.41598E-04
-6.10577E-04
-5.80683E-04
-5.63060E-04
-5.34418E-04
-5.04999E-04
-4.73276E-04
-4.39977E-04
-4.07703E-04
-3.77094E-04
-3.47798E-04
-3.19057E-04
-2.90175E-04
-2.60691E-04
-2.30381E-04
-1.99189E-04
-1.67166E-04
-1.34420E-04
-1.01085E-04
-6.73045E-05
-3.32209E-05
 1.02401E-06
 3.52934E-05
 6.94448E-05
 1.03332E-04
 1.36801E-04
 1.69690E-04
 2.01832E-04
 2.33072E-04
 2.63296E-04
 2.92497E-04
 3.20885E-04
 3.49053E-04
 3.78057E-04
 4.08560E-04
 4.40118E-04
 4.70865E-04
 5.00848E-04
 5.28736E-04
 5.45967E-04
 5.77125E-04
 6.07925E-04
 6.40670E-04
 6.75026E-04
 7.08401E-04
 7.40377E-04
 7.71390E-04
 8.02138E-04
 8.33191E-04
 8.64844E-04
 8.97101E-04
 9.29735E-04
-8.98881E-04
-8.65333E-04
-8.32408E-04
-8.00333E-04
-7.68993E-04
-7.37754E-04
-7.05107E-04
-6.70090E-04
-6.34007E-04
-6.10890E-04
-5.88340E-04
-5.66307E-04
-5.53315E-04
-5.39983E-04
-5.17724E-04
-4.96344E-04
-4.60305E-04
-4.25509E-04
-3.93065E-04
-3.62460E-04
-3.32589E-04
-3.02540E-04
-2.71791E-04
-2.40129E-04
-2.07533E-04
-1.74091E-04
-1.39935E-04
-1.05214E-04
-7.00693E-05
-3.46389E-05
 9.45943E-07
 3.65631E-05
 7.20901E-05
 1.07394E-04
 1.42334E-04
 1.76755E-04
 2.10487E-04
 2.43360E-04
 2.75225E-04
 3.06015E-04
 3.35881E-04
 3.65506E-04
 3.96579E-04
 4.30022E-04
 4.63566E-04
 4.85204E-04
 5.07477E-04
 5.30129E-04
 5.43265E-04
 5.56146E-04
 5.78797E-04
 6.01527E-04
 6.40355E-04
 6.76705E-04
 7.10437E-04
 7.42420E-04
 7.73803E-04
 8.05453E-04
 8.37831E-04
 8.71026E-04
 9.04780E-04
-8.72581E-04
-8.37733E-04
-8.03591E-04
-7.70336E-04
-7.37691E-04
-7.04842E-04