# vtk DataFile Version 2.0
Output of NLACE
ASCII
DATASET UNSTRUCTURED_GRID
POINTS          216 FLOAT
 0.000000E+00  0.000000E+00  0.000000E+00
 2.000000E+00  0.000000E+00  0.000000E+00
 4.000000E+00  0.000000E+00  0.000000E+00
 6.000000E+00  0.000000E+00  0.000000E+00
 8.000000E+00  0.000000E+00  0.000000E+00
 1.000000E+01  0.000000E+00  0.000000E+00
 0.000000E+00  2.000000E+00  0.000000E+00
 2.000000E+00  2.000000E+00  0.000000E+00
 4.000000E+00  2.000000E+00  0.000000E+00
 6.000000E+00  2.000000E+00  0.000000E+00
 8.000000E+00  2.000000E+00  0.000000E+00
 1.000000E+01  2.000000E+00  0.000000E+00
 0.000000E+00  4.000000E+00  0.000000E+00
 2.000000E+00  4.000000E+00  0.000000E+00
 4.000000E+00  4.000000E+00  0.000000E+00
 6.000000E+00  4.000000E+00  0.000000E+00
 8.000000E+00  4.000000E+00  0.000000E+00
 1.000000E+01  4.000000E+00  0.000000E+00
 0.000000E+00  6.000000E+00  0.000000E+00
 2.000000E+00  6.000000E+00  0.000000E+00
 4.000000E+00  6.000000E+00  0.000000E+00
 6.000000E+00  6.000000E+00  0.000000E+00
 8.000000E+00  6.000000E+00  0.000000E+00
 1.000000E+01  6.000000E+00  0.000000E+00
 0.000000E+00  8.000000E+00  0.000000E+00
 2.000000E+00  8.000000E+00  0.000000E+00
 4.000000E+00  8.000000E+00  0.000000E+00
 6.000000E+00  8.000000E+00  0.000000E+00
 8.000000E+00  8.000000E+00  0.000000E+00
 1.000000E+01  8.000000E+00  0.000000E+00
 0.000000E+00  1.000000E+01  0.000000E+00
 2.000000E+00  1.000000E+01  0.000000E+00
 4.000000E+00  1.000000E+01  0.000000E+00
 6.000000E+00  1.000000E+01  0.000000E+00
 8.000000E+00  1.000000E+01  0.000000E+00
 1.000000E+01  1.000000E+01  0.000000E+00
 0.000000E+00  0.000000E+00 -2.000000E+00
 2.000000E+00  0.000000E+00 -2.000000E+00
 4.000000E+00  0.000000E+00 -2.000000E+00
 6.000000E+00  0.000000E+00 -2.000000E+00
 8.000000E+00  0.000000E+00 -2.000000E+00
 1.000000E+01  0.000000E+00 -2.000000E+00
 0.000000E+00  2.000000E+00 -2.000000E+00
 2.000000E+00  2.000000E+00 -2.000000E+00
 4.000000E+00  2.000000E+00 -2.000000E+00
 6.000000E+00  2.000000E+00 -2.000000E+00
 8.000000E+00  2.000000E+00 -2.000000E+00
 1.000000E+01  2.000000E+00 -2.000000E+00
 0.000000E+00  4.000000E+00 -2.000000E+00
 2.000000E+00  4.000000E+00 -2.000000E+00
 4.000000E+00  4.000000E+00 -2.000000E+00
 6.000000E+00  4.000000E+00 -2.000000E+00
 8.000000E+00  4.000000E+00 -2.000000E+00
 1.000000E+01  4.000000E+00 -2.000000E+00
 0.000000E+00  6.000000E+00 -2.000000E+00
 2.000000E+00  6.000000E+00 -2.000000E+00
 4.000000E+00  6.000000E+00 -2.000000E+00
 6.000000E+00  6.000000E+00 -2.000000E+00
 8.000000E+00  6.000000E+00 -2.000000E+00
 1.000000E+01  6.000000E+00 -2.000000E+00
 0.000000E+00  8.000000E+00 -2.000000E+00
 2.000000E+00  8.000000E+00 -2.000000E+00
 4.000000E+00  8.000000E+00 -2.000000E+00
 6.000000E+00  8.000000E+00 -2.000000E+00
 8.000000E+00  8.000000E+00 -2.000000E+00
 1.000000E+01  8.000000E+00 -2.000000E+00
 0.000000E+00  1.000000E+01 -2.000000E+00
 2.000000E+00  1.000000E+01 -2.000000E+00
 4.000000E+00  1.000000E+01 -2.000000E+00
 6.000000E+00  1.000000E+01 -2.000000E+00
 8.000000E+00  1.000000E+01 -2.000000E+00
 1.000000E+01  1.000000E+01 -2.000000E+00
 0.000000E+00  0.000000E+00 -4.000000E+00
 2.000000E+00  0.000000E+00 -4.000000E+00
 4.000000E+00  0.000000E+00 -4.000000E+00
 6.000000E+00  0.000000E+00 -4.000000E+00
 8.000000E+00  0.000000E+00 -4.000000E+00
 1.000000E+01  0.000000E+00 -4.000000E+00
 0.000000E+00  2.000000E+00 -4.000000E+00
 2.000000E+00  2.000000E+00 -4.000000E+00
 4.000000E+00  2.000000E+00 -4.000000E+00
 6.000000E+00  2.000000E+00 -4.000000E+00
 8.000000E+00  2.000000E+00 -4.000000E+00
 1.000000E+01  2.000000E+00 -4.000000E+00
 0.000000E+00  4.000000E+00 -4.000000E+00
 2.000000E+00  4.000000E+00 -4.000000E+00
 4.000000E+00  4.000000E+00 -4.000000E+00
 6.000000E+00  4.000000E+00 -4.000000E+00
 8.000000E+00  4.000000E+00 -4.000000E+00
 1.000000E+01  4.000000E+00 -4.000000E+00
 0.000000E+00  6.000000E+00 -4.000000E+00
 2.000000E+00  6.000000E+00 -4.000000E+00
 4.000000E+00  6.000000E+00 -4.000000E+00
 6.000000E+00  6.000000E+00 -4.000000E+00
 8.000000E+00  6.000000E+00 -4.000000E+00
 1.000000E+01  6.000000E+00 -4.000000E+00
 0.000000E+00  8.000000E+00 -4.000000E+00
 2.000000E+00  8.000000E+00 -4.000000E+00
 4.000000E+00  8.000000E+00 -4.000000E+00
 6.000000E+00  8.000000E+00 -4.000000E+00
 8.000000E+00  8.000000E+00 -4.000000E+00
 1.000000E+01  8.000000E+00 -4.000000E+00
 0.000000E+00  1.000000E+01 -4.000000E+00
 2.000000E+00  1.000000E+01 -4.000000E+00
 4.000000E+00  1.000000E+01 -4.000000E+00
 6.000000E+00  1.000000E+01 -4.000000E+00
 8.000000E+00  1.000000E+01 -4.000000E+00
 1.000000E+01  1.000000E+01 -4.000000E+00
 0.000000E+00  0.000000E+00 -6.000000E+00
 2.000000E+00  0.000000E+00 -6.000000E+00
 4.000000E+00  0.000000E+00 -6.000000E+00
 6.000000E+00  0.000000E+00 -6.000000E+00
 8.000000E+00  0.000000E+00 -6.000000E+00
 1.000000E+01  0.000000E+00 -6.000000E+00
 0.000000E+00  2.000000E+00 -6.000000E+00
 2.000000E+00  2.000000E+00 -6.000000E+00
 4.000000E+00  2.000000E+00 -6.000000E+00
 6.000000E+00  2.000000E+00 -6.000000E+00
 8.000000E+00  2.000000E+00 -6.000000E+00
 1.000000E+01  2.000000E+00 -6.000000E+00
 0.000000E+00  4.000000E+00 -6.000000E+00
 2.000000E+00  4.000000E+00 -6.000000E+00
 4.000000E+00  4.000000E+00 -6.000000E+00
 6.000000E+00  4.000000E+00 -6.000000E+00
 8.000000E+00  4.000000E+00 -6.000000E+00
 1.000000E+01  4.000000E+00 -6.000000E+00
 0.000000E+00  6.000000E+00 -6.000000E+00
 2.000000E+00  6.000000E+00 -6.000000E+00
 4.000000E+00  6.000000E+00 -6.000000E+00
 6.000000E+00  6.000000E+00 -6.000000E+00
 8.000000E+00  6.000000E+00 -6.000000E+00
 1.000000E+01  6.000000E+00 -6.000000E+00
 0.000000E+00  8.000000E+00 -6.000000E+00
 2.000000E+00  8.000000E+00 -6.000000E+00
 4.000000E+00  8.000000E+00 -6.000000E+00
 6.000000E+00  8.000000E+00 -6.000000E+00
 8.000000E+00  8.000000E+00 -6.000000E+00
 1.000000E+01  8.000000E+00 -6.000000E+00
 0.000000E+00  1.000000E+01 -6.000000E+00
 2.000000E+00  1.000000E+01 -6.000000E+00
 4.000000E+00  1.000000E+01 -6.000000E+00
 6.000000E+00  1.000000E+01 -6.000000E+00
 8.000000E+00  1.000000E+01 -6.000000E+00
 1.000000E+01  1.000000E+01 -6.000000E+00
 0.000000E+00  0.000000E+00 -8.000000E+00
 2.000000E+00  0.000000E+00 -8.000000E+00
 4.000000E+00  0.000000E+00 -8.000000E+00
 6.000000E+00  0.000000E+00 -8.000000E+00
 8.000000E+00  0.000000E+00 -8.000000E+00
 1.000000E+01  0.000000E+00 -8.000000E+00
 0.000000E+00  2.000000E+00 -8.000000E+00
 2.000000E+00  2.000000E+00 -8.000000E+00
 4.000000E+00  2.000000E+00 -8.000000E+00
 6.000000E+00  2.000000E+00 -8.000000E+00
 8.000000E+00  2.000000E+00 -8.000000E+00
 1.000000E+01  2.000000E+00 -8.000000E+00
 0.000000E+00  4.000000E+00 -8.000000E+00
 2.000000E+00  4.000000E+00 -8.000000E+00
 4.000000E+00  4.000000E+00 -8.000000E+00
 6.000000E+00  4.000000E+00 -8.000000E+00
 8.000000E+00  4.000000E+00 -8.000000E+00
 1.000000E+01  4.000000E+00 -8.000000E+00
 0.000000E+00  6.000000E+00 -8.000000E+00
 2.000000E+00  6.000000E+00 -8.000000E+00
 4.000000E+00  6.000000E+00 -8.000000E+00
 6.000000E+00  6.000000E+00 -8.000000E+00
 8.000000E+00  6.000000E+00 -8.000000E+00
 1.000000E+01  6.000000E+00 -8.000000E+00
 0.000000E+00  8.000000E+00 -8.000000E+00
 2.000000E+00  8.000000E+00 -8.000000E+00
 4.000000E+00  8.000000E+00 -8.000000E+00
 6.000000E+00  8.000000E+00 -8.000000E+00
 8.000000E+00  8.000000E+00 -8.000000E+00
 1.000000E+01  8.000000E+00 -8.000000E+00
 0.000000E+00  1.000000E+01 -8.000000E+00
 2.000000E+00  1.000000E+01 -8.000000E+00
 4.000000E+00  1.000000E+01 -8.000000E+00
 6.000000E+00  1.000000E+01 -8.000000E+00
 8.000000E+00  1.000000E+01 -8.000000E+00
 1.000000E+01  1.000000E+01 -8.000000E+00
 0.000000E+00  0.000000E+00 -1.000000E+01
 2.000000E+00  0.000000E+00 -1.000000E+01
 4.000000E+00  0.000000E+00 -1.000000E+01
 6.000000E+00  0.000000E+00 -1.000000E+01
 8.000000E+00  0.000000E+00 -1.000000E+01
 1.000000E+01  0.000000E+00 -1.000000E+01
 0.000000E+00  2.000000E+00 -1.000000E+01
 2.000000E+00  2.000000E+00 -1.000000E+01
 4.000000E+00  2.000000E+00 -1.000000E+01
 6.000000E+00  2.000000E+00 -1.000000E+01
 8.000000E+00  2.000000E+00 -1.000000E+01
 1.000000E+01  2.000000E+00 -1.000000E+01
 0.000000E+00  4.000000E+00 -1.000000E+01
 2.000000E+00  4.000000E+00 -1.000000E+01
 4.000000E+00  4.000000E+00 -1.000000E+01
 6.000000E+00  4.000000E+00 -1.000000E+01
 8.000000E+00  4.000000E+00 -1.000000E+01
 1.000000E+01  4.000000E+00 -1.000000E+01
 0.000000E+00  6.000000E+00 -1.000000E+01
 2.000000E+00  6.000000E+00 -1.000000E+01
 4.000000E+00  6.000000E+00 -1.000000E+01
 6.000000E+00  6.000000E+00 -1.000000E+01
 8.000000E+00  6.000000E+00 -1.000000E+01
 1.000000E+01  6.000000E+00 -1.000000E+01
 0.000000E+00  8.000000E+00 -1.000000E+01
 2.000000E+00  8.000000E+00 -1.000000E+01
 4.000000E+00  8.000000E+00 -1.000000E+01
 6.000000E+00  8.000000E+00 -1.000000E+01
 8.000000E+00  8.000000E+00 -1.000000E+01
 1.000000E+01  8.000000E+00 -1.000000E+01
 0.000000E+00  1.000000E+01 -1.000000E+01
 2.000000E+00  1.000000E+01 -1.000000E+01
 4.000000E+00  1.000000E+01 -1.000000E+01
 6.000000E+00  1.000000E+01 -1.000000E+01
 8.000000E+00  1.000000E+01 -1.000000E+01
 1.000000E+01  1.000000E+01 -1.000000E+01
CELLS          625        3125
4    0   36   42   37
4    7   42   43   37
4    7   42   37    0
4    7    0    6   42
4    1    0    7   37
4    7   37   43   44
4    2   37   44   38
4    2   37    7   44
4    1   37    7    2
4    8    7   44    2
4    2   38   44   39
4    9   44   45   39
4    9   44   39    2
4    9    2    8   44
4    3    2    9   39
4    9   39   45   46
4    4   39   46   40
4    4   39    9   46
4    3   39    9    4
4   10    9   46    4
4    4   40   46   41
4   11   46   47   41
4   11   46   41    4
4   11    4   10   46
4    5    4   11   41
4   12   42   48   49
4    7   42   49   43
4    7   42   12   49
4    6   42   12    7
4   13   12   49    7
4    7   43   49   44
4   14   49   50   44
4   14   49   44    7
4   14    7   13   49
4    8    7   14   44
4   14   44   50   51
[...]
POINT_DATA          216
 SCALARS predictedDisp11 float  1                  
LOOKUP_TABLE default
 0.00000E+00
 1.66622E-01
 3.36449E-01
 5.28080E-01
 7.25665E-01
 9.34301E-01
 1.61900E-02
 1.83800E-01
 3.69319E-01
 5.57953E-01
 7.61274E-01
 9.56777E-01
 1.03142E-02
 1.97269E-01
 3.84292E-01
 5.86502E-01
 7.87458E-01
 9.96695E-01
 9.66370E-04
 1.96224E-01
 3.99891E-01
 6.01855E-01
 8.17475E-01
 1.03157E+00
-9.41415E-03
 2.01186E-01
 4.03723E-01
 6.18710E-01
 8.33175E-01
 1.06150E+00
 0.00000E+00
 1.98748E-01
 4.08828E-01
 6.21961E-01
 8.49960E-01
 1.07320E+00
 9.83149E-03
 1.79958E-01
 3.59625E-01
 5.45373E-01
 7.48957E-01
 9.44860E-01
 2.39644E-02
 2.03389E-01
 3.84443E-01
 5.81217E-01
 7.77038E-01
 9.78576E-01
 2.85126E-02
 2.10718E-01
 4.06765E-01
 6.02421E-01
 8.09883E-01
 1.01107E+00
 1.46831E-02
 2.18028E-01
 4.15480E-01
 6.24594E-01
 8.31805E-01
 1.05055E+00
 1.14726E-02
 2.16216E-01
 4.26382E-01
 6.34245E-01
 8.53488E-01
 1.06844E+00
 9.55619E-03
 2.20694E-01
 4.25196E-01
 6.44890E-01
 8.63628E-01
 1.08189E+00
 4.78239E-02
 2.34447E-01
 4.14438E-01
 6.09370E-01
 8.06535E-01
 1.01296E+00
 6.79049E-02
 2.49242E-01
 4.43293E-01
 6.36264E-01
 8.38286E-01
 1.03250E+00
 6.99901E-02
 2.66055E-01
 4.59498E-01
 6.62750E-01
 8.62573E-01
 1.06695E+00
 6.92505E-02
 2.68701E-01
 4.74950E-01
 6.78254E-01
 8.89163E-01
 1.09445E+00
 6.43009E-02
 2.75152E-01
 4.80090E-01
 6.93214E-01
 9.02201E-01
 1.11643E+00
 7.44565E-02
 2.74171E-01
 4.85815E-01
 6.98538E-01
 9.18566E-01
 1.12300E+00
 1.19139E-01
 3.18978E-01
 5.09679E-01
 6.98088E-01
 9.01075E-01
 1.09543E+00
 1.37498E-01
 3.39351E-01
 5.30473E-01
 7.28756E-01
 9.26165E-01
 1.12349E+00
 1.57676E-01
 3.50610E-01
 5.50881E-01
 7.50982E-01
 9.55424E-01
 1.15085E+00
 1.52299E-01
 3.59709E-01
 5.61770E-01
 7.69716E-01
 9.75996E-01
 1.18282E+00
 1.53593E-01
 3.59662E-01
 5.69568E-01
 7.79795E-01
 9.93068E-01
 1.19044E+00
 1.52873E-01
 3.62845E-01
 5.69596E-01
 7.88535E-01
 1.00192E+00
 1.19716E+00
 2.68312E-01
 4.56162E-01
 6.20067E-01
 8.06826E-01
 1.01601E+00
 1.22373E+00
 2.88789E-01
 4.64385E-01
 6.43781E-01
 8.38327E-01
 1.04532E+00
 1.23982E+00
 2.93164E-01
 4.76686E-01
 6.60740E-01
 8.60016E-01
 1.07274E+00
 1.27820E+00
 2.82326E-01
 4.75288E-01
 6.69207E-01
 8.78685E-01
 1.10044E+00
 1.31351E+00
 2.68660E-01
 4.74656E-01
 6.74576E-01
 8.88158E-01
 1.11560E+00
 1.33510E+00
 2.75858E-01
 4.70445E-01
 6.70647E-01
 8.91626E-01
 1.12599E+00
 1.33987E+00
 5.04580E-01
 6.30022E-01
 7.32175E-01
 9.04376E-01
 1.15372E+00
 1.38094E+00
 4.98769E-01
 6.31198E-01
 7.49689E-01
 9.34671E-01
 1.18184E+00
 1.39840E+00
 4.88710E-01
 6.23559E-01
 7.56900E-01
 9.55490E-01
 1.21309E+00
 1.44648E+00
 4.52072E-01
 6.13397E-01
 7.62326E-01
 9.73696E-01
 1.24614E+00
 1.50190E+00
 4.24011E-01
 6.04986E-01
 7.64489E-01
 9.86026E-01
 1.26863E+00
 1.53044E+00
 4.25126E-01
 5.99156E-01
 7.59062E-01
 9.87272E-01
 1.27782E+00
 1.54081E+00
 SCALARS predictedDisp12 float  1                  
LOOKUP_TABLE default
 0.00000E+00
-1.55729E-02
-5.32608E-02
-9.47409E-02
-1.37341E-01
-1.60306E-01
 1.66618E-01
 1.52018E-01
 1.33447E-01
 1.00315E-01
 7.29742E-02
 3.83479E-02
 3.36764E-01
 3.37575E-01
 3.20486E-01
 3.03800E-01
 2.75364E-01
 2.48081E-01
 5.28767E-01
 5.26459E-01
 5.22704E-01
 5.05776E-01
 4.90149E-01
 4.60941E-01
 7.26741E-01
 7.29944E-01
 7.23840E-01
 7.21386E-01
 7.04622E-01
 6.88740E-01
 9.35476E-01
 9.25719E-01
 9.33239E-01
 9.35676E-01
 9.32943E-01
 9.12043E-01
 9.68841E-03
-7.99311E-03
-3.54002E-02
-8.12762E-02
-1.16794E-01
-1.50904E-01
 1.79841E-01
 1.71322E-01
 1.46676E-01
 1.21780E-01
 8.77756E-02
 5.99772E-02
 3.59675E-01
 3.52503E-01
 3.42632E-01
 3.19157E-01
 2.97697E-01
 2.64240E-01
 5.45862E-01
 5.49407E-01
 5.38396E-01
 5.28184E-01
 5.05476E-01
 4.83594E-01
 7.49729E-01
 7.45490E-01
 7.45935E-01
 7.35490E-01
 7.24639E-01
 7.02307E-01
 9.45896E-01
 9.47198E-01
 9.47374E-01
 9.54315E-01
 9.39686E-01
 9.20607E-01
 4.71279E-02
 3.51533E-02
 5.27806E-03
-2.76412E-02
-6.48037E-02
-8.69951E-02
 2.33692E-01
 2.16507E-01
 2.01156E-01
 1.71651E-01
 1.45820E-01
 1.12669E-01
 4.13886E-01
 4.10549E-01
 3.94597E-01
 3.77749E-01
 3.50638E-01
 3.24046E-01
 6.09065E-01
 6.03716E-01
 5.97859E-01
 5.81063E-01
 5.63610E-01
 5.36603E-01
 8.06538E-01
 8.05880E-01
 7.97844E-01
 7.91989E-01
 7.72643E-01
 7.56548E-01
 1.01305E+00
 1.00034E+00
 1.00237E+00
 9.97441E-01
 9.86875E-01
 9.61118E-01
 1.17405E-01
 1.03515E-01
 9.15776E-02
 5.41158E-02
 2.31116E-02
-9.77908E-03
 3.17212E-01
 3.05305E-01
 2.84442E-01
 2.61313E-01
 2.29050E-01
 2.00018E-01
 5.07852E-01
 4.96498E-01
 4.84650E-01
 4.63285E-01
 4.38764E-01
 4.06606E-01
 6.96575E-01
 6.94884E-01
 6.84828E-01
 6.71194E-01
 6.48927E-01
 6.25315E-01
 8.99780E-01
 8.92530E-01
 8.89392E-01
 8.77563E-01
 8.62188E-01
 8.38830E-01
 1.09438E+00
 1.09004E+00
 1.08506E+00
 1.08450E+00
 1.05967E+00
 1.03420E+00
 2.64408E-01
 2.52811E-01
 2.25461E-01
 1.82563E-01
 1.36506E-01
 1.11338E-01
 4.52192E-01
 4.28520E-01
 4.08870E-01
 3.75299E-01
 3.42310E-01
 3.05925E-01
 6.16265E-01
 6.07970E-01
 5.92911E-01
 5.69135E-01
 5.42065E-01
 5.05801E-01
 8.03418E-01
 8.02772E-01
 7.92299E-01
 7.78577E-01
 7.55478E-01
 7.26501E-01
 1.01304E+00
 1.01002E+00
 1.00518E+00
 1.00043E+00
 9.82939E-01
 9.60784E-01
 1.22089E+00
 1.20481E+00
 1.21094E+00
 1.21369E+00
 1.20253E+00
 1.17484E+00
 4.97236E-01
 4.60264E-01
 4.19384E-01
 3.50897E-01
 2.89855E-01
 2.58317E-01
 6.22992E-01
 5.92905E-01
 5.54207E-01
 5.12010E-01
 4.70652E-01
 4.32325E-01
 7.25519E-01
 7.11736E-01
 6.87671E-01
 6.60864E-01
 6.29929E-01
 5.91758E-01
 8.98490E-01
 8.97102E-01
 8.86418E-01
 8.72205E-01
 8.51220E-01
 8.19395E-01
 1.14849E+00
 1.14464E+00
 1.14423E+00
 1.14471E+00
 1.13374E+00
 1.10977E+00
 1.37593E+00
 1.36152E+00
 1.37794E+00
 1.40070E+00
 1.39566E+00
 1.37286E+00
 SCALARS predictedDisp13 float  1                  
LOOKUP_TABLE default
 0.00000E+00
 0.00000E+00
 0.00000E+00
 0.00000E+00
 0.00000E+00
 0.00000E+00
 0.00000E+00
 0.00000E+00
 0.00000E+00
 0.00000E+00
 0.00000E+00
 0.00000E+00
 0.00000E+00
 0.00000E+00
 0.00000E+00
 0.00000E+00
 0.00000E+00
 0.00000E+00
 0.00000E+00
 0.00000E+00
 0.00000E+00
 0.00000E+00
 0.00000E+00
 0.00000E+00
 0.00000E+00
 0.00000E+00
 0.00000E+00
 0.00000E+00
 0.00000E+00
 0.00000E+00
 0.00000E+00
 0.00000E+00
 0.00000E+00
 0.00000E+00
 0.00000E+00
 0.00000E+00
 2.21789E-01
 2.52326E-01
 2.75418E-01
 2.92309E-01
 3.14649E-01
 3.53237E-01
 2.52326E-01
 2.85705E-01
 3.09843E-01
 3.28954E-01
 3.51863E-01
 3.91121E-01
 2.75418E-01
 3.09843E-01
 3.34055E-01
 3.51393E-01
 3.74503E-01
 4.11837E-01
 2.92309E-01
 3.28954E-01
 3.51393E-01
 3.68533E-01
 3.90278E-01
 4.27344E-01
 3.14649E-01
 3.51863E-01
 3.74503E-01
 3.90278E-01
 4.12673E-01
 4.47636E-01
 3.53237E-01
 3.91121E-01
 4.11837E-01
 4.27344E-01
 4.47636E-01
 4.81991E-01
 4.39804E-01
 5.08059E-01
 5.55046E-01
 5.88573E-01
 6.32157E-01
 7.08798E-01
 5.08059E-01
 5.77963E-01
 6.27219E-01
 6.61493E-01
 7.06113E-01
 7.81077E-01
 5.55046E-01
 6.27219E-01
 6.72667E-01
 7.05257E-01
 7.47447E-01
 8.23198E-01
 5.88573E-01
 6.61493E-01
 7.05257E-01
 7.34849E-01
 7.78193E-01
 8.50978E-01
 6.32157E-01
 7.06113E-01
 7.47447E-01
 7.78193E-01
 8.19495E-01
 8.93997E-01
 7.08798E-01
 7.81077E-01
 8.23198E-01
 8.50978E-01
 8.93997E-01
 9.65057E-01
 6.45905E-01
 7.69822E-01
 8.42088E-01
 8.92410E-01
 9.56112E-01
 1.06499E+00
 7.69822E-01
 8.87418E-01
 9.58031E-01
 1.00206E+00
 1.06200E+00
 1.17151E+00
 8.42088E-01
 9.58031E-01
 1.02048E+00
 1.06098E+00
 1.12025E+00
 1.22917E+00
 8.92410E-01
 1.00206E+00
 1.06098E+00
 1.09981E+00
 1.15619E+00
 1.27204E+00
 9.56112E-01
 1.06200E+00
 1.12025E+00
 1.15619E+00
 1.21850E+00
 1.33032E+00
 1.06499E+00
 1.17151E+00
 1.22917E+00
 1.27204E+00
 1.33032E+00
 1.45025E+00
 8.70304E-01
 1.05341E+00
 1.15560E+00
 1.20974E+00
 1.28536E+00
 1.42723E+00
 1.05341E+00
 1.22754E+00
 1.30665E+00
 1.35377E+00
 1.42211E+00
 1.56044E+00
 1.15560E+00
 1.30665E+00
 1.38146E+00
 1.41903E+00
 1.48610E+00
 1.62972E+00
 1.20974E+00
 1.35377E+00
 1.41903E+00
 1.45536E+00
 1.52639E+00
 1.67256E+00
 1.28536E+00
 1.42211E+00
 1.48610E+00
 1.52639E+00
 1.59186E+00
 1.75408E+00
 1.42723E+00
 1.56044E+00
 1.62972E+00
 1.67256E+00
 1.75408E+00
 1.90955E+00
 1.15123E+00
 1.41631E+00
 1.51998E+00
 1.56051E+00
 1.63661E+00
 1.79216E+00
 1.41631E+00
 1.60528E+00
 1.69143E+00
 1.71499E+00
 1.78397E+00
 1.93650E+00
 1.51998E+00
 1.69143E+00
 1.74916E+00
 1.77678E+00
 1.84473E+00
 2.00483E+00
 1.56051E+00
 1.71499E+00
 1.77678E+00
 1.80259E+00
 1.86531E+00
 2.03828E+00
 1.63661E+00
 1.78397E+00
 1.84473E+00
 1.86531E+00
 1.94455E+00
 2.11511E+00
 1.79216E+00
 1.93650E+00
 2.00483E+00
 2.03828E+00
 2.11511E+00
 2.30219E+00
 SCALARS predictedDisp14 float  1                  
LOOKUP_TABLE default
 3.72860E-01
 4.04855E-01
 4.49196E-01
 5.07797E-01
 5.62273E-01
 5.96676E-01
 4.04855E-01
 4.25614E-01
 4.82527E-01
 5.36522E-01
 5.97327E-01
 6.31750E-01
 4.49196E-01
 4.82527E-01
 5.36218E-01
 5.99262E-01
 6.61461E-01
 6.91790E-01
 5.07797E-01
 5.36522E-01
 5.99262E-01
 6.64386E-01
 7.22712E-01
 7.60615E-01
 5.62273E-01
 5.97327E-01
 6.61461E-01
 7.22712E-01
 7.91306E-01
 8.18115E-01
 5.96676E-01
 6.31750E-01
 6.91790E-01
 7.60615E-01
 8.18115E-01
 8.62605E-01
 3.81037E-01
 4.02428E-01
 4.59015E-01
 5.07320E-01
 5.64467E-01
 5.96287E-01
 4.02428E-01
 4.36273E-01
 4.83389E-01
 5.42533E-01
 5.97060E-01
 6.29365E-01
 4.59015E-01
 4.83389E-01
 5.41604E-01
 5.99235E-01
 6.55397E-01
 6.91118E-01
 5.07320E-01
 5.42533E-01
 5.99235E-01
 6.58950E-01
 7.20371E-01
 7.47491E-01
 5.64467E-01
 5.97060E-01
 6.55397E-01
 7.20371E-01
 7.75044E-01
 8.16883E-01
 5.96287E-01
 6.29365E-01
 6.91118E-01
 7.47491E-01
 8.16883E-01
 8.44773E-01
 3.86917E-01
 4.27607E-01
 4.72708E-01
 5.23300E-01
 5.66982E-01
 5.96013E-01
 4.27607E-01
 4.49851E-01
 5.05998E-01
 5.49167E-01
 5.97225E-01
 6.26005E-01
 4.72708E-01
 5.05998E-01
 5.52163E-01
 5.99759E-01
 6.48390E-01
 6.73386E-01
 5.23300E-01
 5.49167E-01
 5.99759E-01
 6.48409E-01
 6.93431E-01
 7.26953E-01
 5.66982E-01
 5.97225E-01
 6.48390E-01
 6.93431E-01
 7.51332E-01
 7.74789E-01
 5.96013E-01
 6.26005E-01
 6.73386E-01
 7.26953E-01
 7.74789E-01
 8.19119E-01
 4.37430E-01
 4.64949E-01
 5.18176E-01
 5.43552E-01
 5.74171E-01
 5.95370E-01
 4.64949E-01
 5.03523E-01
 5.40678E-01
 5.69501E-01
 5.97563E-01
 6.18806E-01
 5.18176E-01
 5.40678E-01
 5.76300E-01
 6.01421E-01
 6.28184E-01
 6.52108E-01
 5.43552E-01
 5.69501E-01
 6.01421E-01
 6.24063E-01
 6.55657E-01
 6.74452E-01
 5.74171E-01
 5.97563E-01
 6.28184E-01
 6.55657E-01
 6.85364E-01
 7.17581E-01
 5.95370E-01
 6.18806E-01
 6.52108E-01
 6.74452E-01
 7.17581E-01
 7.40267E-01
 5.15549E-01
 5.48165E-01
 5.82064E-01
 5.76180E-01
 5.81106E-01
 5.95576E-01
 5.48165E-01
 5.77119E-01
 5.94122E-01
 5.93170E-01
 5.97850E-01
 6.11864E-01
 5.82064E-01
 5.94122E-01
 6.11421E-01
 6.00933E-01
 6.06456E-01
 6.19609E-01
 5.76180E-01
 5.93170E-01
 6.00933E-01
 5.91416E-01
 6.00759E-01
 6.09150E-01
 5.81106E-01
 5.97850E-01
 6.06456E-01
 6.00759E-01
 6.04739E-01
 6.26132E-01
 5.95576E-01
 6.11864E-01
 6.19609E-01
 6.09150E-01
 6.26132E-01
 6.40751E-01
 5.66008E-01
 6.05541E-01
 6.15076E-01
 5.95434E-01
 5.85332E-01
 5.95600E-01
 6.05541E-01
 6.18391E-01
 6.36196E-01
 6.04359E-01
 5.97943E-01
 6.08225E-01
 6.15076E-01
 6.36196E-01
 6.24697E-01
 6.01088E-01
 5.93922E-01
 6.01353E-01
 5.95434E-01
 6.04359E-01
 6.01088E-01
 5.75649E-01
 5.60206E-01
 5.77256E-01
 5.85332E-01
 5.97943E-01
 5.93922E-01
 5.60206E-01
 5.65383E-01
 5.65119E-01
 5.95600E-01
 6.08225E-01
 6.01353E-01
 5.77256E-01
 5.65119E-01
 5.89892E-01
 SCALARS NLP float  1                              
LOOKUP_TABLE default
 1.00000E+00
 1.00000E+00
 1.00000E+00
 1.00000E+00
 1.00000E+00
 1.00000E+00
 1.00000E+00
 1.00000E+00
 1.00000E+00
 1.00000E+00
 1.00000E+00
 1.00000E+00
 1.00000E+00
 1.00000E+00
 1.00000E+00
 1.00000E+00
 1.00000E+00
 1.00000E+00
 1.00000E+00
 1.00000E+00
 1.00000E+00
 1.00000E+00
 1.00000E+00
 1.00000E+00
 1.00000E+00
 1.00000E+00
 1.00000E+00
 1.00000E+00
 1.00000E+00
 1.00000E+00
 1.00000E+00
 1.00000E+00
 1.00000E+00
 1.00000E+00
 1.00000E+00
 1.00000E+00
 1.00000E+00
 1.00000E+00
 1.00000E+00
 1.00000E+00
 1.00000E+00
 1.00000E+00
 1.00000E+00
 1.00000E+00
 1.00000E+00
 1.00000E+00
 1.00000E+00
 1.00000E+00
 1.00000E+00
 1.00000E+00
 1.00000E+00
 1.00000E+00
 1.00000E+00
 1.00000E+00
 1.00000E+00
 1.00000E+00
 1.00000E+00
 1.00000E+00
 1.00000E+00
 1.00000E+00
 1.00000E+00
 1.00000E+00
 1.00000E+00
 1.00000E+00
 1.00000E+00
 1.00000E+00
 1.00000E+00
 1.00000E+00
 1.00000E+00
 1.00000E+00
 1.00000E+00
 1.00000E+00
 1.00000E+00
 1.00000E+00
 1.00000E+00
 1.00000E+00
 1.00000E+00
 1.00000E+00
 1.00000E+00
 1.00000E+00
 1.00000E+00
 1.00000E+00
 1.00000E+00
 1.00000E+00
 1.00000E+00
 1.00000E+00
 1.00000E+00
 1.00000E+00
 1.00000E+00
 1.00000E+00
 1.00000E+00
 1.00000E+00
 1.00000E+00
 1.00000E+00
 1.00000E+00
 1.00000E+00
 1.00000E+00
 1.00000E+00
 1.00000E+00
 1.00000E+00
 1.00000E+00
 1.00000E+00
 1.00000E+00
 1.00000E+00
 1.00000E+00
 1.00000E+00
 1.00000E+00
 1.00000E+00
 1.00000E+00
 1.00000E+00
 1.00000E+00
 1.00000E+00
 1.00000E+00
 1.00000E+00
 1.00000E+00
 1.00000E+00
 1.00000E+00
 1.00000E+00
 1.00000E+00
 1.00000E+00
 1.00000E+00
 1.00000E+00
 1.00000E+00
 1.00000E+00
 1.00000E+00
 1.00000E+00
 1.00000E+00
 1.00000E+00
 1.00000E+00
 1.00000E+00
 1.00000E+00
 1.00000E+00
 1.00000E+00
 1.00000E+00
 1.00000E+00
 1.00000E+00
 1.00000E+00
 1.00000E+00
 1.00000E+00
 1.00000E+00
 1.00000E+00
 1.00000E+00
 1.00000E+00
 1.00000E+00
 1.00000E+00
 1.00000E+00
 1.00000E+00
 1.00000E+00
 1.00000E+00
 1.00000E+00
 1.00000E+00
 1.00000E+00
 1.00000E+00
 1.00000E+00
 1.00000E+00
 1.00000E+00
 1.00000E+00
 1.00000E+00
 1.00000E+00
 1.00000E+00
 1.00000E+00
 1.00000E+00
 1.00000E+00
 1.00000E+00
 1.00000E+00
 1.00000E+00
 1.00000E+00
 1.00000E+00
 1.00000E+00
 1.00000E+00
 1.00000E+00
 1.00000E+00
 1.00000E+00
 1.00000E+00
 1.00000E+00
 1.00000E+00
 1.00000E+00
 1.00000E+00
 1.00000E+00
 1.00000E+00
 1.00000E+00
 1.00000E+00
 1.00000E+00
 1.00000E+00
 1.00000E+00
 1.00000E+00
 1.00000E+00
 1.00000E+00
 1.00000E+00
 1.00000E+00
 1.00000E+00
 1.00000E+00
 1.00000E+00
 1.00000E+00
 1.00000E+00
 1.00000E+00
 1.00000E+00
 1.00000E+00
 1.00000E+00
 1.00000E+00
 1.00000E+00
 1.00000E+00
 1.00000E+00
 1.00000E+00
 1.00000E+00
 1.00000E+00
 1.00000E+00
 1.00000E+00
 1.00000E+00
 1.00000E+00
 1.00000E+00
 1.00000E+00
 1.00000E+00
 1.00000E+00
 1.00000E+00
 1.00000E+00
 SCALARS SM float  1                               
LOOKUP_TABLE default
 3.00000E+00
 3.00000E+00
 3.00000E+00
 3.00000E+00
 3.00000E+00
 3.00000E+00
 3.00000E+00
 3.00000E+00
 3.00000E+00
 3.00000E+00
 3.00000E+00
 3.00000E+00
 3.00000E+00
 3.00000E+00
 3.00000E+00
 3.00000E+00
 3.00000E+00
 3.00000E+00
 3.00000E+00
 3.00000E+00
 3.00000E+00
 3.00000E+00
 3.00000E+00
 3.00000E+00
 3.00000E+00
 3.00000E+00
 3.00000E+00
 3.00000E+00
 3.00000E+00
 3.00000E+00
 3.00000E+00
 3.00000E+00
 3.00000E+00
 3.00000E+00
 3.00000E+00
 3.00000E+00
 3.00000E+00
 3.00000E+00
 3.00000E+00
 3.00000E+00
 3.00000E+00
 3.00000E+00
 3.00000E+00
 3.00000E+00
 3.00000E+00
 3.00000E+00
 3.00000E+00
 3.00000E+00
 3.00000E+00
 3.00000E+00
 3.00000E+00
 3.00000E+00
 3.00000E+00
 3.00000E+00
 3.00000E+00
 3.00000E+00
 3.00000E+00
 3.00000E+00
 3.00000E+00
 3.00000E+00
 3.00000E+00
 3.00000E+00
 3.00000E+00
 3.00000E+00
 3.00000E+00
 3.00000E+00
 3.00000E+00
 3.00000E+00
 3.00000E+00
 3.00000E+00
 3.00000E+00
 3.00000E+00
 3.00000E+00
 3.00000E+00
 3.00000E+00
 3.00000E+00
 3.00000E+00
 3.00000E+00
 3.00000E+00
 3.00000E+00
 3.00000E+00
 3.00000E+00
 3.00000E+00
 3.00000E+00
 3.00000E+00
 3.00000E+00
 3.00000E+00
 3.00000E+00
 3.00000E+00
 3.00000E+00
 3.00000E+00
 3.00000E+00
 3.00000E+00
 3.00000E+00
 3.00000E+00
 3.00000E+00
 3.00000E+00
 3.00000E+00
 3.00000E+00
 3.00000E+00
 3.00000E+00
 3.00000E+00
 3.00000E+00
 3.00000E+00
 3.00000E+00
 3.00000E+00
 3.00000E+00
 3.00000E+00
 3.00000E+00
 3.00000E+00
 3.00000E+00
 3.00000E+00
 3.00000E+00
 3.00000E+00
 3.00000E+00
 3.00000E+00
 3.00000E+00
 3.00000E+00
 3.00000E+00
 3.00000E+00
 3.00000E+00
 3.00000E+00
 3.00000E+00
 3.00000E+00
 3.00000E+00
 3.00000E+00
 3.00000E+00
 3.00000E+00
 3.00000E+00
 3.00000E+00
 3.00000E+00
 3.00000E+00
 3.00000E+00
 3.00000E+00
 3.00000E+00
 3.00000E+00
 3.00000E+00
 3.00000E+00
 3.00000E+00
 3.00000E+00
 3.00000E+00
 3.00000E+00
 3.00000E+00
 3.00000E+00
 3.00000E+00
 3.00000E+00
 3.00000E+00
 3.00000E+00
 3.00000E+00
 3.00000E+00
 3.00000E+00
 3.00000E+00
 3.00000E+00
 3.00000E+00
 3.00000E+00
 3.00000E+00
 3.00000E+00
 3.00000E+00
 3.00000E+00
 3.00000E+00
 3.00000E+00
 3.00000E+00
 3.00000E+00
 3.00000E+00
 3.00000E+00
 3.00000E+00
 3.00000E+00
 3.00000E+00
 3.00000E+00
 3.00000E+00
 3.00000E+00
 3.00000E+00
 3.00000E+00
 3.00000E+00
 3.00000E+00
 3.00000E+00
 3.00000E+00
 3.00000E+00
 3.00000E+00
 3.00000E+00
 3.00000E+00
 3.00000E+00
 3.00000E+00
 3.00000E+00
 3.00000E+00
 3.00000E+00
 3.00000E+00
 3.00000E+00
 3.00000E+00
 3.00000E+00
 3.00000E+00
 3.00000E+00
 3.00000E+00
 3.00000E+00
 3.00000E+00
 3.00000E+00
 3.00000E+00
 3.00000E+00
 3.00000E+00
 3.00000E+00
 3.00000E+00
 3.00000E+00
 3.00000E+00
 3.00000E+00
 3.00000E+00
 3.00000E+00
 3.00000E+00
 3.00000E+00
 3.00000E+00
 3.00000E+00
 3.00000E+00
 3.00000E+00
 3.00000E+00
 3.00000E+00
 3.00000E+00
 3.00000E+00
 SCALARS property3 float  1                        
LOOKUP_TABLE default
 0.00000E+00
 0.00000E+00
 0.00000E+00
 0.00000E+00
 0.00000E+00
 0.00000E+00
 0.00000E+00
 0.00000E+00
 0.00000E+00
 0.00000E+00
 0.00000E+00
 0.00000E+00
 0.00000E+00
 0.00000E+00
 0.00000E+00
 0.00000E+00
 0.00000E+00
 0.00000E+00
 0.00000E+00
 0.00000E+00
 0.00000E+00
 0.00000E+00
 0.00000E+00
 0.00000E+00
 0.00000E+00
 0.00000E+00
 0.00000E+00
 0.00000E+00
 0.00000E+00
 0.00000E+00
 0.00000E+00
 0.00000E+00
 0.00000E+00
 0.00000E+00
 0.00000E+00
 0.00000E+00
 0.00000E+00
 0.00000E+00
 0.00000E+00
 0.00000E+00
 0.00000E+00
 0.00000E+00
 0.00000E+00
 0.00000E+00
 0.00000E+00
 0.00000E+00
 0.00000E+00
 0.00000E+00
 0.00000E+00
 0.00000E+00
 0.00000E+00
 0.00000E+00
 0.00000E+00
 0.00000E+00
 0.00000E+00
 0.00000E+00
 0.00000E+00
 0.00000E+00
 0.00000E+00
 0.00000E+00
 0.00000E+00
 0.00000E+00
 0.00000E+00
 0.00000E+00
 0.00000E+00
 0.00000E+00
 0.00000E+00
 0.00000E+00
 0.00000E+00
 0.00000E+00
 0.00000E+00
 0.00000E+00
 0.00000E+00
 0.00000E+00
 0.00000E+00
 0.00000E+00
 0.00000E+00
 0.00000E+00
 0.00000E+00
 0.00000E+00
 0.00000E+00
 0.00000E+00
 0.00000E+00
 0.00000E+00
 0.00000E+00
 0.00000E+00
 0.00000E+00
 0.00000E+00
 0.00000E+00
 0.00000E+00
 0.00000E+00
 0.00000E+00
 0.00000E+00
 0.00000E+00
 0.00000E+00
 0.00000E+00
 0.00000E+00
 0.00000E+00
 0.00000E+00
 0.00000E+00
 0.00000E+00
 0.00000E+00
 0.00000E+00
 0.00000E+00
 0.00000E+00
 0.00000E+00
 0.00000E+00
 0.00000E+00
 0.00000E+00
 0.00000E+00
 0.00000E+00
 0.00000E+00
 0.00000E+00
 0.00000E+00
 0.00000E+00
 0.00000E+00
 0.00000E+00
 0.00000E+00
 0.00000E+00
 0.00000E+00
 0.00000E+00
 0.00000E+00
 0.00000E+00
 0.00000E+00
 0.00000E+00
 0.00000E+00
 0.00000E+00
 0.00000E+00
 0.00000E+00
 0.00000E+00
 0.00000E+00
 0.00000E+00
 0.00000E+00
 0.00000E+00
 0.00000E+00
 0.00000E+00
 0.00000E+00
 0.00000E+00
 0.00000E+00
 0.00000E+00
 0.00000E+00
 0.00000E+00
 0.00000E+00
 0.00000E+00
 0.00000E+00
 0.00000E+00
 0.00000E+00
 0.00000E+00
 0.00000E+00
 0.00000E+00
 0.00000E+00
 0.00000E+00
 0.00000E+00
 0.00000E+00
 0.00000E+00
 0.00000E+00
 0.00000E+00
 0.00000E+00
 0.00000E+00
 0.00000E+00
 0.00000E+00
 0.00000E+00
 0.00000E+00
 0.00000E+00
 0.00000E+00
 0.00000E+00
 0.00000E+00
 0.00000E+00
 0.00000E+00
 0.00000E+00
 0.00000E+00
 0.00000E+00
 0.00000E+00
 0.00000E+00
 0.00000E+00
 0.00000E+00
 0.00000E+00
 0.00000E+00
 0.00000E+00
 0.00000E+00
 0.00000E+00
 0.00000E+00
 0.00000E+00
 0.00000E+00
 0.00000E+00
 0.00000E+00
 0.00000E+00
 0.00000E+00
 0.00000E+00
 0.00000E+00
 0.00000E+00
 0.00000E+00
 0.00000E+00
 0.00000E+00
 0.00000E+00
 0.00000E+00
 0.00000E+00
 0.00000E+00
 0.00000E+00
 0.00000E+00
 0.00000E+00