# vtk DataFile Version 2.0
Output of NLACE
ASCII
DATASET UNSTRUCTURED_GRID
POINTS         4096 FLOAT
 0.000000E+00  0.000000E+00  0.000000E+00
 6.666667E-02  0.000000E+00  0.000000E+00
 1.333333E-01  0.000000E+00  0.000000E+00
 2.000000E-01  0.000000E+00  0.000000E+00
 2.666667E-01  0.000000E+00  0.000000E+00
 3.333333E-01  0.000000E+00  0.000000E+00
 4.000000E-01  0.000000E+00  0.000000E+00
 4.666667E-01  0.000000E+00  0.000000E+00
 5.333333E-01  0.000000E+00  0.000000E+00
 6.000000E-01  0.000000E+00  0.000000E+00
 6.666667E-01  0.000000E+00  0.000000E+00
 7.333333E-01  0.000000E+00  0.000000E+00
 8.000000E-01  0.000000E+00  0.000000E+00
 8.666667E-01  0.000000E+00  0.000000E+00
 9.333333E-01  0.000000E+00  0.000000E+00
 1.000000E+00  0.000000E+00  0.000000E+00
 0.000000E+00  6.666667E-02  0.000000E+00
 6.666667E-02  6.666667E-02  0.000000E+00
 1.333333E-01  6.666667E-02  0.000000E+00
 2.000000E-01  6.666667E-02  0.000000E+00
 2.666667E-01  6.666667E-02  0.000000E+00
 3.333333E-01  6.666667E-02  0.000000E+00
 4.000000E-01  6.666667E-02  0.000000E+00
 4.666667E-01  6.666667E-02  0.000000E+00
 5.333333E-01  6.666667E-02  0.000000E+00
 6.000000E-01  6.666667E-02  0.000000E+00
 6.666667E-01  6.666667E-02  0.000000E+00
 7.333333E-01  6.666667E-02  0.000000E+00
 8.000000E-01  6.666667E-02  0.000000E+00
 8.666667E-01  6.666667E-02  0.000000E+00
 9.333333E-01  6.666667E-02  0.000000E+00
 1.000000E+00  6.666667E-02  0.000000E+00
 0.000000E+00  1.333333E-01  0.000000E+00
 6.666667E-02  1.333333E-01  0.000000E+00
 1.333333E-01  1.333333E-01  0.000000E+00
 2.000000E-01  1.333333E-01  0.000000E+00
 2.666667E-01  1.333333E-01  0.000000E+00
 3.333333E-01  1.333333E-01  0.000000E+00
 4.000000E-01  1.333333E-01  0.000000E+00
 4.666667E-01  1.333333E-01  0.000000E+00
 5.333333E-01  1.333333E-01  0.000000E+00
 6.000000E-01  1.333333E-01  0.000000E+00
 6.666667E-01  1.333333E-01  0.000000E+00
 7.333333E-01  1.333333E-01  0.000000E+00
 8.000000E-01  1.333333E-01  0.000000E+00
 8.666667E-01  1.333333E-01  0.000000E+00
 9.333333E-01  1.333333E-01  0.000000E+00
 1.000000E+00  1.333333E-01  0.000000E+00
 0.000000E+00  2.000000E-01  0.000000E+00
 6.666667E-02  2.000000E-01  0.000000E+00
 1.333333E-01  2.000000E-01  0.000000E+00
 2.000000E-01  2.000000E-01  0.000000E+00
 2.666667E-01  2.000000E-01  0.000000E+00
 3.333333E-01  2.000000E-01  0.000000E+00
 4.000000E-01  2.000000E-01  0.000000E+00
 4.666667E-01  2.000000E-01  0.000000E+00
 5.333333E-01  2.000000E-01  0.000000E+00
 6.000000E-01  2.000000E-01  0.000000E+00
 6.666667E-01  2.000000E-01  0.000000E+00
 7.333333E-01  2.000000E-01  0.000000E+00
 8.000000E-01  2.000000E-01  0.000000E+00
 8.666667E-01  2.000000E-01  0.000000E+00
 9.333333E-01  2.000000E-01  0.000000E+00
 1.000000E+00  2.000000E-01  0.000000E+00
 0.000000E+00  2.666667E-01  0.000000E+00
 6.666667E-02  2.666667E-01  0.000000E+00
 1.333333E-01  2.666667E-01  0.000000E+00
 2.000000E-01  2.666667E-01  0.000000E+00
 2.666667E-01  2.666667E-01  0.000000E+00
 3.333333E-01  2.666667E-01  0.000000E+00
 4.000000E-01  2.666667E-01  0.000000E+00
 4.666667E-01  2.666667E-01  0.000000E+00
 5.333333E-01  2.666667E-01  0.000000E+00
 6.000000E-01  2.666667E-01  0.000000E+00
 6.666667E-01  2.666667E-01  0.000000E+00
 7.333333E-01  2.666667E-01  0.000000E+00
 8.000000E-01  2.666667E-01  0.000000E+00
 8.666667E-01  2.666667E-01  0.000000E+00
 9.333333E-01  2.666667E-01  0.000000E+00
 1.000000E+00  2.666667E-01  0.000000E+00
 0.000000E+00  3.333333E-01  0.000000E+00
 6.666667E-02  3.333333E-01  0.000000E+00
 1.333333E-01  3.333333E-01  0.000000E+00
 2.000000E-01  3.333333E-01  0.000000E+00
 2.666667E-01  3.333333E-01  0.000000E+00
 3.333333E-01  3.333333E-01  0.000000E+00
 4.000000E-01  3.333333E-01  0.000000E+00
 4.666667E-01  3.333333E-01  0.000000E+00
 5.333333E-01  3.333333E-01  0.000000E+00
 6.000000E-01  3.333333E-01  0.000000E+00
 6.666667E-01  3.333333E-01  0.000000E+00
 7.333333E-01  3.333333E-01  0.000000E+00
 8.000000E-01  3.333333E-01  0.000000E+00
 8.666667E-01  3.333333E-01  0.000000E+00
 9.333333E-01  3.333333E-01  0.000000E+00
 1.000000E+00  3.333333E-01  0.000000E+00
 0.000000E+00  4.000000E-01  0.000000E+00
 6.666667E-02  4.000000E-01  0.000000E+00
 1.333333E-01  4.000000E-01  0.000000E+00
 2.000000E-01  4.000000E-01  0.000000E+00
 2.666667E-01  4.000000E-01  0.000000E+00
 3.333333E-01  4.000000E-01  0.000000E+00
 4.000000E-01  4.000000E-01  0.000000E+00
 4.666667E-01  4.000000E-01  0.000000E+00
 5.333333E-01  4.000000E-01  0.000000E+00
 6.000000E-01  4.000000E-01  0.000000E+00
 6.666667E-01  4.000000E-01  0.000000E+00
 7.333333E-01  4.000000E-01  0.000000E+00
 8.000000E-01  4.000000E-01  0.000000E+00
 8.666667E-01  4.000000E-01  0.000000E+00
 9.333333E-01  4.000000E-01  0.000000E+00
 1.000000E+00  4.000000E-01  0.000000E+00
 0.000000E+00  4.666667E-01  0.000000E+00
 6.666667E-02  4.666667E-01  0.000000E+00
 1.333333E-01  4.666667E-01  0.000000E+00
 2.000000E-01  4.666667E-01  0.000000E+00
 2.666667E-01  4.666667E-01  0.000000E+00
 3.333333E-01  4.666667E-01  0.000000E+00
 4.000000E-01  4.666667E-01  0.000000E+00
 4.666667E-01  4.666667E-01  0.000000E+00
 5.333333E-01  4.666667E-01  0.000000E+00
 6.000000E-01  4.666667E-01  0.000000E+00
 6.666667E-01  4.666667E-01  0.000000E+00
 7.333333E-01  4.666667E-01  0.000000E+00
 8.000000E-01  4.666667E-01  0.000000E+00
 8.666667E-01  4.666667E-01  0.000000E+00
 9.333333E-01  4.666667E-01  0.000000E+00
 1.000000E+00  4.666667E-01  0.000000E+00
 0.000000E+00  5.333333E-01  0.000000E+00
 6.666667E-02  5.333333E-01  0.000000E+00
 1.333333E-01  5.333333E-01  0.000000E+00
 2.000000E-01  5.333333E-01  0.000000E+00
 2.666667E-01  5.333333E-01  0.000000E+00
 3.333333E-01  5.333333E-01  0.000000E+00
 4.000000E-01  5.333333E-01  0.000000E+00
 4.666667E-01  5.333333E-01  0.000000E+00
 5.333333E-01  5.333333E-01  0.000000E+00
 6.000000E-01  5.333333E-01  0.000000E+00
 6.666667E-01  5.333333E-01  0.000000E+00
 7.333333E-01  5.333333E-01  0.000000E+00
 8.000000E-01  5.333333E-01  0.000000E+00
 8.666667E-01  5.333333E-01  0.000000E+00
 9.333333E-01  5.333333E-01  0.000000E+00
 1.000000E+00  5.333333E-01  0.000000E+00
 0.000000E+00  6.000000E-01  0.000000E+00
 6.666667E-02  6.000000E-01  0.000000E+00
 1.333333E-01  6.000000E-01  0.000000E+00
 2.000000E-01  6.000000E-01  0.000000E+00
 2.666667E-01  6.000000E-01  0.000000E+00
 3.333333E-01  6.000000E-01  0.000000E+00
 4.000000E-01  6.000000E-01  0.000000E+00
 4.666667E-01  6.000000E-01  0.000000E+00
 5.333333E-01  6.000000E-01  0.000000E+00
 6.000000E-01  6.000000E-01  0.000000E+00
 6.666667E-01  6.000000E-01  0.000000E+00
 7.333333E-01  6.000000E-01  0.000000E+00
 8.000000E-01  6.000000E-01  0.000000E+00
 8.666667E-01  6.000000E-01  0.000000E+00
 9.333333E-01  6.000000E-01  0.000000E+00
 1.000000E+00  6.000000E-01  0.000000E+00
 0.000000E+00  6.666667E-01  0.000000E+00
 6.666667E-02  6.666667E-01  0.000000E+00
 1.333333E-01  6.666667E-01  0.000000E+00
 2.000000E-01  6.666667E-01  0.000000E+00
 2.666667E-01  6.666667E-01  0.000000E+00
 3.333333E-01  6.666667E-01  0.000000E+00
 4.000000E-01  6.666667E-01  0.000000E+00
 4.666667E-01  6.666667E-01  0.000000E+00
 5.333333E-01  6.666667E-01  0.000000E+00
 6.000000E-01  6.666667E-01  0.000000E+00
 6.666667E-01  6.666667E-01  0.000000E+00
 7.333333E-01  6.666667E-01  0.000000E+00
 8.000000E-01  6.666667E-01  0.000000E+00
 8.666667E-01  6.666667E-01  0.000000E+00
 9.333333E-01  6.666667E-01  0.000000E+00
 1.000000E+00  6.666667E-01  0.000000E+00
 0.000000E+00  7.333333E-01  0.000000E+00
 6.666667E-02  7.333333E-01  0.000000E+00
 1.333333E-01  7.333333E-01  0.000000E+00
 2.000000E-01  7.333333E-01  0.000000E+00
 2.666667E-01  7.333333E-01  0.000000E+00
 3.333333E-01  7.333333E-01  0.000000E+00
 4.000000E-01  7.333333E-01  0.000000E+00
 4.666667E-01  7.333333E-01  0.000000E+00
 5.333333E-01  7.333333E-01  0.000000E+00
 6.000000E-01  7.333333E-01  0.000000E+00
 6.666667E-01  7.333333E-01  0.000000E+00
 7.333333E-01  7.333333E-01  0.000000E+00
 8.000000E-01  7.333333E-01  0.000000E+00
 8.666667E-01  7.333333E-01  0.000000E+00
 9.333333E-01  7.333333E-01  0.000000E+00
 1.000000E+00  7.333333E-01  0.000000E+00
 0.000000E+00  8.000000E-01  0.000000E+00
 6.666667E-02  8.000000E-01  0.000000E+00
 1.333333E-01  8.000000E-01  0.000000E+00
 2.000000E-01  8.000000E-01  0.000000E+00
 2.666667E-01  8.000000E-01  0.000000E+00
 3.333333E-01  8.000000E-01  0.000000E+00
 4.000000E-01  8.000000E-01  0.000000E+00
 4.666667E-01  8.000000E-01  0.000000E+00
 5.333333E-01  8.000000E-01  0.000000E+00
 6.000000E-01  8.000000E-01  0.000000E+00
 6.666667E-01  8.000000E-01  0.000000E+00
 7.333333E-01  8.000000E-01  0.000000E+00
 8.000000E-01  8.000000E-01  0.000000E+00
 8.666667E-01  8.000000E-01  0.000000E+00
 9.333333E-01  8.000000E-01  0.000000E+00
 1.000000E+00  8.000000E-01  0.000000E+00
 0.000000E+00  8.666667E-01  0.000000E+00
 6.666667E-02  8.666667E-01  0.000000E+00
 1.333333E-01  8.666667E-01  0.000000E+00
 2.000000E-01  8.666667E-01  0.000000E+00
 2.666667E-01  8.666667E-01  0.000000E+00
 3.333333E-01  8.666667E-01  0.000000E+00
 4.000000E-01  8.666667E-01  0.000000E+00
 4.666667E-01  8.666667E-01  0.000000E+00
 5.333333E-01  8.666667E-01  0.000000E+00
 6.000000E-01  8.666667E-01  0.000000E+00
 6.666667E-01  8.666667E-01  0.000000E+00
 7.333333E-01  8.666667E-01  0.000000E+00
 8.000000E-01  8.666667E-01  0.000000E+00
 8.666667E-01  8.666667E-01  0.000000E+00
 9.333333E-01  8.666667E-01  0.000000E+00
 1.000000E+00  8.666667E-01  0.000000E+00
 0.000000E+00  9.333333E-01  0.000000E+00
 6.666667E-02  9.333333E-01  0.000000E+00
 1.333333E-01  9.333333E-01  0.000000E+00
 2.000000E-01  9.333333E-01  0.000000E+00
 2.666667E-01  9.333333E-01  0.000000E+00
 3.333333E-01  9.333333E-01  0.000000E+00
 4.000000E-01  9.333333E-01  0.000000E+00
 4.666667E-01  9.333333E-01  0.000000E+00
 5.333333E-01  9.333333E-01  0.000000E+00
 6.000000E-01  9.333333E-01  0.000000E+00
 6.666667E-01  9.333333E-01  0.000000E+00
[...]
POINT_DATA         4096
 SCALARS measuredDisp11 float  1                   
LOOKUP_TABLE default
 0.00000E+00
 3.77767E-05
 7.47342E-05
 1.16562E-04
 1.64645E-04
 2.19180E-04
 2.79810E-04
 3.44639E-04
 4.11525E-04
 4.77449E-04
 5.39464E-04
 5.95730E-04
 6.44886E-04
 6.86951E-04
 7.24896E-04
 7.63002E-04
-2.88617E-07
 3.83766E-05
 8.04187E-05
 1.24840E-04
 1.74429E-04
 2.27598E-04
 2.85876E-04
 3.46799E-04
 4.09506E-04
 4.71608E-04
 5.30467E-04
 5.85915E-04
 6.35645E-04
 6.81919E-04
 7.23132E-04
 7.63976E-04
-1.05495E-05
 3.14149E-05
 7.32545E-05
 1.20510E-04
 1.69443E-04
 2.24954E-04
 2.82737E-04
 3.45844E-04
 4.09642E-04
 4.72527E-04
 5.34101E-04
 5.89234E-04
 6.42008E-04
 6.87790E-04
 7.32298E-04
 7.73179E-04
-2.72579E-05
 1.54988E-05
 6.10720E-05
 1.06497E-04
 1.59849E-04
 2.14148E-04
 2.77946E-04
 3.42730E-04
 4.10728E-04
 4.78645E-04
 5.41136E-04
 6.02491E-04
 6.53586E-04
 7.03844E-04
 7.46826E-04
 7.93103E-04
-5.00171E-05
-1.14190E-06
 4.22880E-05
 9.34825E-05
 1.44073E-04
 2.07059E-04
 2.69928E-04
 3.41864E-04
 4.13267E-04
 4.83019E-04
 5.53739E-04
 6.13090E-04
 6.72346E-04
 7.19165E-04
 7.67793E-04
 8.14241E-04
-6.91950E-05
-2.11883E-05
 2.87686E-05
 7.58608E-05
 1.36691E-04
 1.95752E-04
 2.69750E-04
 3.40476E-04
 4.14818E-04
 4.91017E-04
 5.58746E-04
 6.28905E-04
 6.83367E-04
 7.39079E-04
 7.83635E-04
 8.37480E-04
-8.81683E-05
-3.27213E-05
 1.22832E-05
 6.92667E-05
 1.24410E-04
 2.00034E-04
 2.63834E-04
 3.42512E-04
 4.17788E-04
 4.87894E-04
 5.69665E-04
 6.32663E-04
 6.98916E-04
 7.47722E-04
 8.00492E-04
 8.51298E-04
-9.55662E-05
-4.41739E-05
 9.17225E-06
 5.81466E-05
 1.25142E-04
 1.87649E-04
 2.70556E-04
 3.41743E-04
 4.18305E-04
 4.98747E-04
 5.64049E-04
 6.42413E-04
 6.99577E-04
 7.58821E-04
 8.04345E-04
 8.62065E-04
-9.93109E-05
-4.15919E-05
 3.93189E-06
 6.31754E-05
 1.20339E-04
 1.98703E-04
 2.64005E-04
 3.44448E-04
 4.21010E-04
 4.92196E-04
 5.75104E-04
 6.37609E-04
 7.04605E-04
 7.53580E-04
 8.06927E-04
 8.58320E-04
-8.85432E-05
-3.77379E-05
 1.50311E-05
 6.38360E-05
 1.30089E-04
 1.93087E-04
 2.74858E-04
 3.44964E-04
 4.20241E-04
 4.98918E-04
 5.62718E-04
 6.38342E-04
 6.93485E-04
 7.50469E-04
 7.95474E-04
 8.50922E-04
-7.47238E-05
-2.08806E-05
 2.36741E-05
 7.93859E-05
 1.33848E-04
 2.04007E-04
 2.71736E-04
 3.47935E-04
 4.22276E-04
 4.93003E-04
 5.66999E-04
 6.26060E-04
 6.86890E-04
 7.33983E-04
 7.83940E-04
 8.31948E-04
-5.14844E-05
-5.03772E-06
 4.35891E-05
 9.04080E-05
 1.49665E-04
 2.09015E-04
 2.79736E-04
 3.49486E-04
 4.20889E-04
 4.92825E-04
 5.55692E-04
 6.18678E-04
 6.69268E-04
 7.20462E-04
 7.63893E-04
 8.12770E-04
-3.03449E-05
 1.59315E-05
 5.89135E-05
 1.09171E-04
 1.60266E-04
 2.21620E-04
 2.84111E-04
 3.52026E-04
 4.20024E-04
 4.84807E-04
 5.48603E-04
 6.02901E-04
 6.56252E-04
 7.01676E-04
 7.47250E-04
 7.90009E-04
-1.04163E-05
 3.04662E-05
 7.49745E-05
 1.20756E-04
 1.73527E-04
 2.28658E-04
 2.90230E-04
 3.53114E-04
 4.16911E-04
 4.80015E-04
 5.37797E-04
 5.93306E-04
 6.42237E-04
 6.89489E-04
 7.31328E-04
 7.73295E-04
-1.18755E-06
 3.96585E-05
 8.08609E-05
 1.27127E-04
 1.76852E-04
 2.32296E-04
 2.91151E-04
 3.53251E-04
 4.15956E-04
 4.76877E-04
 5.35153E-04
 5.88319E-04
 6.37905E-04
 6.82321E-04
 7.24353E-04
 7.63008E-04
 0.00000E+00
 3.79569E-05
 7.58518E-05
 1.17893E-04
 1.67039E-04
 2.23300E-04
 2.85312E-04
 3.51233E-04
 4.18117E-04
 4.82943E-04
 5.43572E-04
 5.98104E-04
 6.46184E-04
 6.88008E-04
 7.24956E-04
 7.62644E-04
 5.36089E-06
 4.39037E-05
 8.24165E-05
 1.24381E-04
 1.72302E-04
 2.26026E-04
 2.84605E-04
 3.46804E-04
 4.10576E-04
 4.73464E-04
 5.33106E-04
 5.87729E-04
 6.36351E-04
 6.79114E-04
 7.17162E-04
 7.56027E-04
 4.55162E-06
 4.54060E-05
 8.67021E-05
 1.32259E-04
 1.80609E-04
 2.33699E-04
 2.89565E-04
 3.48739E-04
 4.08712E-04
 4.67929E-04
 5.25387E-04
 5.78578E-04
 6.28655E-04
 6.73701E-04
 7.16609E-04
 7.56364E-04
-3.09384E-06
 3.78498E-05
 8.19958E-05
 1.27273E-04
 1.78105E-04
 2.30496E-04
 2.88561E-04
 3.47566E-04
 4.08406E-04
 4.68994E-04
 5.26369E-04
 5.82474E-04
 6.32224E-04
 6.80400E-04
 7.23118E-04
 7.66307E-04
-1.96625E-05
 2.58378E-05
 6.90416E-05
 1.18276E-04
 1.67974E-04
 2.25576E-04
 2.83182E-04
 3.46613E-04
 4.09268E-04
 4.71064E-04
 5.33857E-04
 5.89442E-04
 6.44614E-04
 6.91243E-04
 7.37994E-04
 7.82058E-04
-3.73706E-05
 8.57166E-06
 5.68962E-05
 1.04150E-04
 1.61347E-04
 2.17833E-04
 2.83964E-04
 3.45239E-04
 4.09737E-04
 4.75202E-04
 5.36129E-04
 6.01446E-04
 6.54579E-04
 7.08066E-04
 7.52827E-04
 8.03096E-04
-5.70138E-05
-4.48924E-06
 4.12144E-05
 9.70121E-05
 1.52702E-04
 2.23404E-04
 2.83913E-04
 3.47371E-04
 4.10034E-04
 4.72534E-04
 5.42840E-04
 6.03480E-04
 6.68596E-04
 7.18508E-04
 7.70522E-04
 8.19879E-04
-6.92641E-05
-1.86972E-05
 3.48673E-05
 8.63278E-05
 1.57594E-04
 2.32457E-04
 2.90512E-04
 3.50525E-04
 4.08754E-04
 4.61307E-04
 5.36182E-04
 6.12325E-04
 6.70293E-04
 7.32037E-04
 7.79510E-04
 8.35901E-04
-7.96765E-05
-2.23714E-05
 2.56336E-05
 8.86832E-05
 1.48126E-04
 2.26724E-04
 2.98934E-04
 3.52197E-04
 4.09690E-04
 4.68883E-04
 5.29204E-04
 6.06786E-04
 6.80781E-04
 7.33493E-04
 7.88769E-04
 8.40873E-04
-7.81184E-05
-2.60161E-05
 2.92599E-05
 8.19710E-05
 1.55966E-04
 2.33548E-04
 2.93870E-04
 3.53062E-04
 4.10556E-04
 4.63819E-04
 5.36028E-04
 6.14626E-04
 6.74069E-04
 7.37119E-04
 7.85124E-04
 8.42430E-04
-7.31467E-05
-1.67560E-05
 3.07155E-05
 9.24597E-05
 1.50427E-04
 2.26570E-04
 3.01446E-04
 3.53998E-04
 4.12227E-04
 4.72241E-04
 5.30295E-04
 6.05157E-04
 6.76424E-04
 7.27885E-04
 7.81450E-04
 8.32017E-04
-5.71231E-05
-7.76804E-06
 4.42458E-05
 9.41566E-05
 1.59273E-04
 2.19913E-04
 2.90219E-04
 3.52719E-04
 4.15382E-04
 4.78840E-04
 5.39348E-04
 6.10050E-04
 6.65739E-04
 7.21537E-04
 7.67241E-04
 8.19767E-04
-4.03397E-05
 9.92827E-06
 5.46882E-05
 1.08176E-04
 1.61309E-04
 2.26625E-04
 2.87552E-04
 3.53017E-04
 4.17514E-04
 4.78788E-04
 5.44918E-04
 6.01404E-04
 6.58600E-04
 7.05854E-04
 7.54179E-04
 8.00123E-04
-1.92994E-05
 2.47631E-05
 7.15146E-05
 1.18143E-04
 1.73315E-04
 2.28899E-04
 2.91692E-04
 3.53487E-04
 4.16141E-04
 4.79571E-04
 5.37176E-04
 5.94776E-04
 6.44473E-04
 6.93707E-04
 7.36912E-04
 7.82414E-04
-3.54433E-06
 3.96467E-05
 8.23635E-05
 1.30539E-04
 1.80287E-04
 2.36390E-04
 2.93763E-04
 3.54350E-04
 4.15188E-04
 4.74192E-04
 5.32255E-04
 5.84645E-04
 6.35474E-04
 6.80750E-04
 7.24896E-04
 7.65843E-04
 6.42081E-06
 4.61730E-05
 8.90751E-05
 1.34115E-04
 1.84187E-04
 2.37375E-04
 2.94830E-04
 3.54045E-04
 4.14016E-04
 4.73188E-04
 5.29052E-04
 5.82140E-04
 6.30488E-04
 6.76041E-04
 7.17335E-04
 7.58189E-04
 6.80932E-06
 4.56558E-05
 8.36778E-05
 1.26426E-04
 1.75039E-04
 2.29658E-04
 2.89296E-04
 3.52182E-04
 4.15951E-04
 4.78149E-04
 5.36726E-04
 5.90448E-04
 6.38366E-04
 6.80329E-04
 7.18838E-04
 7.57374E-04
 2.20131E-05
 6.26801E-05
 1.02900E-04
 1.46525E-04
 1.93786E-04
 2.44818E-04
 2.97966E-04
 3.52696E-04
 4.07938E-04
 4.62456E-04
 5.15360E-04
 5.65601E-04
 6.12880E-04
 6.56120E-04
 6.97212E-04
 7.38422E-04
 2.17693E-05
 6.30582E-05
 1.06534E-04
 1.51378E-04
 1.99526E-04
 2.49217E-04
 3.01338E-04
 3.53598E-04
 4.06289E-04
 4.58634E-04
 5.09509E-04
 5.59756E-04
 6.07200E-04
 6.53124E-04
 6.96059E-04
 7.39014E-04
 1.52624E-05
 5.90591E-05
 1.02643E-04
 1.50022E-04
 1.98279E-04
 2.50418E-04
 3.02066E-04
 3.54399E-04
 4.05592E-04
 4.56238E-04
 5.08235E-04
 5.58705E-04
 6.09255E-04
 6.55493E-04
 7.01014E-04
 7.44253E-04
 5.29646E-06
 5.00514E-05
 9.70726E-05
 1.44404E-04
 1.97626E-04
 2.50544E-04
 3.06840E-04
 3.55949E-04
 4.04608E-04
 4.53476E-04
 5.03346E-04
 5.60163E-04
 6.11753E-04
 6.62851E-04
 7.08301E-04
 7.55420E-04
-7.44721E-06
 4.20904E-05
 8.89101E-05
 1.42956E-04
 1.98011E-04
 2.60920E-04
 3.18238E-04
 3.58231E-04
 4.02572E-04
 4.48651E-04
 4.92586E-04
 5.53463E-04
 6.15446E-04
 6.67365E-04
 7.18608E-04
 7.66564E-04
-1.65952E-05
 3.31458E-05
 8.69869E-05
 1.42155E-04
 2.11259E-04
 2.83591E-04
 3.20030E-04
 3.60446E-04
 4.00609E-04
 4.38513E-04
 4.90816E-04
 5.42089E-04
 6.08444E-04
 6.73244E-04
 7.24741E-04
 7.78383E-04
-2.49860E-05
 3.06165E-05
 8.40705E-05
 1.53813E-04
 2.28528E-04
 2.88404E-04
 3.28150E-04
 3.61959E-04
 3.99708E-04
 4.34324E-04
 4.75180E-04
 5.41169E-04
 6.00944E-04
 6.70521E-04
 7.32440E-04
 7.85179E-04
-2.71975E-05
 2.64054E-05
 8.98442E-05
 1.61770E-04
 2.24342E-04
 2.93352E-04
 3.28736E-04
 3.62717E-04
 3.99546E-04
 4.31100E-04
 4.72406E-04
 5.32232E-04
 6.06055E-04
 6.78522E-04
 7.33947E-04
 7.91368E-04
-2.86142E-05
 2.88062E-05
 8.42302E-05
 1.56698E-04
 2.30520E-04
 2.90346E-04
 3.31652E-04
 3.63206E-04
 4.00035E-04
 4.34016E-04
 4.69400E-04
 5.38410E-04
 6.00982E-04
 6.72908E-04
 7.36347E-04
 7.89951E-04
-2.24247E-05
 3.03137E-05
 9.22318E-05
 1.61808E-04
 2.21583E-04
 2.87573E-04
 3.28429E-04
 3.63045E-04
 4.00794E-04
 4.34603E-04
 4.74348E-04
 5.34224E-04
 6.08939E-04
 6.78682E-04
 7.32136E-04
 7.87739E-04
-1.56275E-05
 3.80131E-05
 8.95092E-05
 1.54309E-04
 2.20663E-04
 2.71937E-04
 3.24240E-04
 3.62144E-04
 4.02307E-04
 4.42722E-04
 4.79161E-04
 5.51492E-04
 6.20596E-04
 6.75765E-04
 7.29606E-04
 7.79348E-04
-3.80717E-06
 4.41469E-05
 9.53897E-05
 1.47308E-04
 2.09291E-04
 2.70168E-04
 3.14102E-04
 3.60182E-04
 4.04521E-04
 4.44514E-04
 5.01832E-04
 5.64740E-04
 6.19795E-04
 6.73841E-04
 7.20661E-04
 7.70200E-04
 7.33776E-06
 5.44564E-05
 9.99051E-05
 1.51003E-04
 2.02592E-04
 2.59409E-04
 3.09279E-04
 3.58146E-04
 4.06805E-04
 4.55912E-04
 5.12207E-04
 5.65124E-04
 6.18346E-04
 6.65678E-04
 7.12699E-04
 7.57456E-04
 1.85095E-05
 6.17473E-05
 1.07269E-04
 1.53505E-04
 2.04054E-04
 2.54523E-04
 3.06519E-04
 3.57163E-04
 4.08355E-04
 4.60686E-04
 5.12334E-04
 5.64471E-04
 6.12727E-04
 6.60105E-04
 7.03691E-04
 7.47490E-04
 2.37594E-05
 6.67143E-05
 1.09646E-04
 1.55566E-04
 2.03007E-04
 2.53251E-04
 3.04125E-04
 3.56468E-04
 4.09157E-04
 4.61415E-04
 5.13535E-04
 5.63224E-04
 6.11371E-04
 6.56214E-04
 6.99691E-04
 7.40984E-04
 2.43745E-05
 6.55785E-05
 1.06660E-04
 1.49891E-04
 1.97164E-04
 2.47402E-04
 3.00303E-04
 3.54819E-04
 4.10059E-04
 4.64787E-04
 5.17934E-04
 5.68964E-04
 6.16224E-04
 6.59849E-04
 7.00069E-04
 7.40742E-04
 4.55955E-05
 8.93833E-05
 1.33345E-04
 1.78162E-04
 2.24686E-04
 2.70892E-04
 3.16567E-04
 3.60267E-04
 4.03963E-04
 4.47406E-04
 4.90337E-04
 5.34796E-04
 5.79239E-04
 6.23850E-04
 6.67757E-04
 7.12220E-04
 4.52763E-05
 8.99025E-05
 1.34367E-04
 1.80021E-04
 2.25788E-04
 2.72361E-04
 3.17439E-04
 3.60679E-04
 4.03006E-04
 4.44844E-04
 4.87658E-04
 5.31949E-04
 5.77473E-04
 6.22446E-04
 6.67542E-04
 7.12230E-04
 4.32161E-05
 8.83061E-05
 1.34391E-04
 1.80606E-04
 2.29071E-04
 2.77044E-04
 3.23733E-04
 3.63902E-04
 4.01486E-04
 4.38817E-04
 4.79645E-04
 5.26864E-04
 5.74402E-04
 6.22015E-04
 6.67804E-04
 7.13866E-04
 3.95033E-05
 8.71000E-05
 1.33966E-04
 1.84309E-04
 2.35314E-04
 2.89723E-04
 3.40803E-04
 3.67539E-04
 3.99484E-04
 4.31947E-04
 4.60563E-04
 5.14654E-04
 5.69429E-04
 6.19548E-04
 6.68704E-04
 7.15946E-04
 3.74809E-05
 8.63704E-05
 1.38020E-04
 1.91279E-04
 2.51728E-04
 3.13059E-04
 3.41225E-04
 3.68287E-04
 3.98427E-04
 4.27536E-04
 4.57144E-04
 4.93818E-04
 5.55601E-04
 6.15301E-04
 6.67460E-04
 7.17941E-04
 3.71279E-05
 9.00809E-05
 1.44925E-04
 2.10006E-04
 2.79064E-04
 3.11697E-04
 3.40079E-04
 3.67809E-04
 3.97641E-04
 4.27248E-04
 4.55862E-04
 4.90371E-04
 5.32534E-04
 6.02929E-04
 6.65770E-04
 7.18478E-04
 3.96649E-05
 9.42565E-05
 1.61139E-04
 2.38818E-04
 2.76371E-04
 3.10967E-04
 3.38523E-04
 3.67422E-04
 3.96976E-04
 4.25527E-04
 4.56492E-04
 4.86644E-04
 5.28114E-04
 5.90909E-04
 6.62077E-04
 7.19759E-04
 4.04423E-05
 9.94888E-05
 1.72582E-04
 2.37067E-04
 2.78533E-04
 3.08759E-04
 3.38688E-04
 3.66884E-04
 3.96344E-04
 4.25303E-04
 4.54791E-04
 4.87563E-04
 5.19804E-04
 5.94963E-04
 6.64424E-04
 7.20636E-04
 4.21176E-05
 9.83286E-05
 1.67789E-04
 2.42948E-04
 2.75189E-04
 3.07961E-04
 3.37449E-04
 3.66408E-04
 3.95868E-04
 4.24064E-04
 4.53993E-04
 4.84219E-04
 5.25685E-04
 5.90170E-04
 6.63264E-04
 7.22311E-04
 4.29947E-05
 1.00677E-04
 1.71843E-04
 2.34638E-04
 2.76108E-04
 3.06261E-04
 3.37226E-04
 3.65776E-04
 3.95330E-04
 4.24229E-04
 4.51785E-04
 4.86381E-04
 5.23934E-04
 6.01613E-04
 6.68496E-04
 7.23088E-04
 4.42764E-05
 9.69834E-05
 1.59825E-04
 2.30218E-04
 2.72382E-04
 3.06891E-04
 3.35505E-04
 3.65112E-04
 3.94943E-04
 4.22674E-04
 4.51055E-04
 4.83688E-04
 5.52746E-04
 6.17826E-04
 6.72671E-04
 7.25625E-04
 4.48142E-05
 9.52948E-05
 1.47453E-04
 2.07152E-04
 2.68935E-04
 3.05609E-04
 3.35217E-04
 3.64326E-04
 3.94465E-04
 4.21527E-04
 4.49693E-04
 5.11024E-04
 5.71472E-04
 6.24732E-04
 6.76381E-04
 7.25271E-04
 4.68110E-05
 9.40519E-05
 1.43207E-04
 1.93326E-04
 2.48101E-04
 3.02191E-04
 3.30807E-04
 3.63269E-04
 3.95214E-04
 4.21949E-04
 4.73029E-04
 5.27438E-04
 5.78442E-04
 6.28785E-04
 6.75652E-04
 7.23249E-04
 4.88931E-05
 9.49549E-05
 1.40744E-04
 1.88357E-04
 2.35893E-04
 2.83111E-04
 3.23938E-04
 3.61268E-04
 3.98852E-04
 4.39020E-04
 4.85708E-04
 5.33680E-04
 5.82144E-04
 6.28360E-04
 6.74445E-04
 7.19536E-04
 5.05358E-05
 9.52236E-05
 1.40318E-04
 1.85290E-04
 2.30811E-04
 2.75100E-04
 3.17913E-04
 3.59749E-04
 4.02075E-04
 4.45314E-04
 4.90392E-04
 5.36963E-04
 5.82730E-04
 6.28384E-04
 6.72849E-04
 7.17477E-04
 5.05565E-05
 9.50176E-05
 1.38919E-04
 1.83526E-04
 2.27966E-04
 2.72423E-04
 3.15352E-04
 3.58793E-04
 4.02488E-04
 4.46186E-04
 4.91861E-04
 5.38066E-04
 5.84589E-04
 6.29406E-04
 6.73368E-04
 7.17159E-04
 7.28188E-05
 1.20172E-04
 1.67513E-04
 2.13923E-04
 2.58012E-04
 2.98940E-04
 3.34326E-04
 3.67238E-04
 3.99235E-04
 4.31157E-04
 4.65096E-04
 5.01961E-04
 5.43415E-04
 5.88265E-04
 6.35602E-04
 6.83511E-04
 7.28024E-05
 1.20096E-04
 1.66508E-04
 2.11761E-04
 2.55568E-04
 2.96572E-04
 3.34186E-04
 3.66871E-04
 3.98946E-04
 4.31587E-04
 4.64625E-04
 5.02628E-04
 5.44609E-04
 5.89122E-04
 6.35795E-04
 6.83219E-04
 7.44535E-05
 1.22139E-04
 1.69138E-04
 2.15714E-04
 2.61328E-04
 3.06209E-04
 3.46041E-04
 3.70697E-04
 3.97378E-04
 4.23726E-04
 4.50048E-04
 4.92364E-04
 5.37951E-04
 5.84633E-04
 6.32095E-04
 6.80368E-04
 7.85011E-05
 1.27255E-04
 1.76254E-04
 2.25439E-04
 2.77080E-04
 3.28833E-04
 3.51476E-04
 3.72507E-04
 3.96298E-04
 4.19057E-04
 4.41381E-04
 4.70234E-04
 5.22802E-04
 5.74892E-04
 6.25386E-04
 6.74153E-04
 8.57734E-05
 1.36161E-04
 1.88260E-04
 2.44238E-04
 3.02087E-04
 3.28331E-04
 3.51134E-04
 3.72239E-04
 3.96030E-04
 4.19422E-04
 4.39944E-04
 4.65575E-04
 4.99012E-04
 5.58217E-04
 6.15511E-04
 6.67213E-04
 9.51515E-05
 1.48580E-04
 2.08966E-04
 2.72824E-04
 3.01434E-04
 3.25999E-04
 3.47765E-04
 3.71397E-04
 3.95700E-04
 4.19966E-04
 4.43123E-04
 4.64432E-04
 4.92595E-04
 5.33380E-04
 6.04752E-04
 6.59902E-04
 1.04279E-04
 1.62603E-04
 2.38603E-04
 2.73417E-04
 2.99668E-04
 3.22067E-04
 3.45654E-04
 3.70202E-04
 3.95208E-04
 4.19793E-04
 4.44082E-04
 4.66811E-04
 4.86519E-04
 5.25903E-04
 5.98292E-04
 6.55284E-04
 1.07903E-04
 1.65970E-04
 2.39282E-04
 2.77882E-04
 2.97219E-04
 3.19968E-04
 3.44418E-04
 3.69255E-04
 3.94418E-04
 4.19509E-04
 4.43514E-04
 4.66062E-04
 4.88258E-04
 5.16752E-04
 5.93745E-04
 6.53188E-04
 1.09565E-04
 1.69008E-04
 2.46000E-04
 2.74493E-04
 2.96689E-04
 3.19238E-04
 3.43243E-04
 3.68333E-04
 3.93497E-04
 4.18333E-04
 4.42784E-04
 4.65533E-04
 4.84870E-04
 5.23470E-04
 5.96782E-04
 6.54850E-04
 1.07469E-04
 1.64460E-04
 2.36850E-04
 2.76233E-04
 2.95941E-04
 3.18670E-04
 3.42959E-04
 3.67544E-04
 3.92550E-04
 4.17097E-04
 4.40685E-04
 4.63084E-04
 4.89334E-04
 5.24149E-04
 6.00149E-04
 6.58474E-04
 1.02852E-04
 1.58002E-04
 2.29373E-04
 2.70157E-04
 2.98321E-04
 3.19629E-04
 3.42786E-04
 3.67052E-04
 3.91355E-04
 4.14987E-04
 4.36753E-04
 4.61318E-04
 4.89928E-04
 5.53786E-04
 6.14172E-04
 6.67601E-04
 9.55418E-05
 1.47243E-04
 2.04536E-04
 2.63741E-04
 2.97177E-04
 3.22809E-04
 3.43331E-04
 3.66723E-04
 3.90513E-04
 4.11618E-04
 4.34421E-04
 4.60665E-04
 5.18513E-04
 5.74491E-04
 6.26591E-04
 6.76979E-04
 8.86024E-05
 1.37368E-04
 1.87862E-04
 2.39952E-04
 2.92519E-04
 3.21372E-04
 3.43696E-04
 3.66455E-04
 3.90245E-04
 4.11276E-04
 4.33919E-04
 4.85671E-04
 5.37312E-04
 5.86497E-04
 6.35497E-04
 6.84251E-04
 8.23897E-05
 1.30661E-04
 1.78124E-04
 2.24805E-04
 2.70391E-04
 3.12706E-04
 3.39028E-04
 3.65375E-04
 3.92056E-04
 4.16712E-04
 4.56544E-04
 5.01424E-04
 5.47038E-04
 5.93614E-04
 6.40613E-04
 6.88298E-04
 7.95415E-05
 1.26965E-04
 1.73637E-04
 2.18150E-04
 2.60129E-04
 2.98132E-04
 3.31169E-04
 3.63809E-04
 3.95883E-04
 4.28567E-04
 4.66181E-04
 5.07184E-04
 5.50991E-04
 5.96244E-04
 6.42656E-04
 6.89949E-04
 7.92544E-05
 1.27163E-04
 1.74498E-04
 2.19346E-04
 2.60798E-04
 2.97661E-04
 3.31599E-04
 3.63520E-04
 3.95516E-04
 4.28427E-04
 4.63813E-04
 5.04740E-04
 5.48828E-04
 5.95239E-04
 6.42580E-04
 6.89933E-04
 9.87702E-05
 1.49499E-04
 1.99797E-04
 2.47015E-04
 2.88772E-04
 3.23155E-04
 3.49506E-04
 3.71630E-04
 3.93614E-04
 4.16205E-04
 4.42574E-04
 4.74129E-04
 5.11842E-04
 5.56455E-04
 6.07212E-04
 6.58511E-04
 9.90966E-05
 1.48628E-04
 1.97159E-04
 2.41860E-04
 2.83034E-04
 3.18973E-04
 3.47552E-04
 3.71028E-04
 3.94440E-04
 4.18665E-04
 4.46742E-04
 4.77597E-04
 5.15201E-04
 5.59430E-04
 6.07134E-04
 6.58175E-04
 1.03848E-04
 1.54232E-04
 2.02252E-04
 2.48408E-04
 2.91802E-04
 3.32586E-04
 3.52773E-04
 3.73028E-04
 3.93930E-04
 4.13271E-04
 4.36936E-04
 4.62506E-04
 5.05063E-04
 5.50826E-04
 6.00869E-04
 6.50721E-04
 1.15042E-04
 1.64841E-04
 2.15450E-04
 2.64992E-04
 3.14240E-04
 3.36025E-04
 3.54392E-04
 3.73368E-04
 3.93807E-04
 4.13787E-04
 4.32425E-04
 4.53224E-04
 4.81498E-04
 5.34519E-04
 5.87359E-04
 6.39269E-04
 1.29165E-04
 1.81424E-04
 2.35575E-04
 2.90242E-04
 3.14577E-04
 3.34794E-04
 3.53237E-04
 3.73106E-04
 3.93823E-04
 4.14397E-04
 4.33682E-04
 4.51367E-04
 4.74066E-04
 5.08273E-04
 5.72886E-04
 6.25553E-04
 1.46535E-04
 2.00636E-04
 2.64132E-04
 2.92245E-04
 3.13348E-04
 3.31989E-04
 3.51820E-04
 3.72523E-04
 3.93646E-04
 4.14473E-04
 4.34495E-04
 4.52869E-04
 4.68265E-04
 4.97844E-04
 5.59776E-04
 6.14877E-04
 1.58891E-04
 2.20260E-04
 2.69127E-04
 2.95328E-04
 3.11299E-04
 3.30292E-04
 3.50677E-04
 3.71853E-04
 3.93143E-04
 4.14225E-04
 4.34487E-04
 4.53172E-04
 4.68920E-04
 4.85833E-04
 5.47835E-04
 6.03811E-04
 1.63048E-04
 2.19568E-04
 2.77767E-04
 2.94493E-04
 3.10421E-04
 3.29330E-04
 3.49801E-04
 3.71034E-04
 3.92509E-04
 4.13671E-04
 4.33987E-04
 4.52550E-04
 4.66826E-04
 4.89303E-04
 5.36571E-04
 5.99017E-04
 1.63736E-04
 2.26181E-04
 2.73449E-04
 2.95925E-04
 3.10201E-04
 3.28765E-04
 3.49081E-04
 3.70242E-04
 3.91717E-04
 4.12950E-04
 4.33422E-04
 4.52330E-04
 4.68259E-04
 4.84984E-04
 5.43184E-04
 5.99704E-04
 1.58942E-04
 2.14917E-04
 2.76919E-04
 2.93832E-04
 3.09579E-04
 3.28265E-04
 3.48527E-04
 3.69608E-04
 3.90899E-04
 4.12074E-04
 4.32460E-04
 4.51452E-04
 4.67423E-04
 4.93624E-04
 5.42491E-04
 6.03861E-04
 1.47877E-04
 2.02976E-04
 2.64908E-04
 2.94487E-04
 3.09883E-04
 3.28256E-04
 3.48279E-04
 3.69106E-04
 3.90229E-04
 4.10932E-04
 4.30763E-04
 4.49403E-04
 4.70507E-04
 4.98620E-04
 5.62115E-04
 6.16217E-04
 1.37201E-04
 1.89867E-04
 2.54479E-04
 2.88686E-04
 3.11386E-04
 3.29070E-04
 3.48355E-04
 3.68929E-04
 3.89646E-04
 4.09514E-04
 4.27957E-04
 4.48174E-04
 4.72509E-04
 5.27176E-04
 5.81328E-04
 6.33586E-04
 1.23485E-04
 1.75395E-04
 2.28234E-04
 2.81255E-04
 3.09529E-04
 3.30327E-04
 3.48965E-04
 3.68945E-04
 3.89384E-04
 4.08360E-04
 4.26726E-04
 4.48511E-04
 4.97759E-04
 5.47301E-04
 5.97911E-04
 6.47709E-04
 1.12034E-04
 1.61886E-04
 2.11928E-04
 2.57691E-04
 3.00248E-04
 3.25817E-04
 3.49482E-04
 3.68823E-04
 3.89725E-04
 4.09979E-04
 4.30165E-04
 4.70949E-04
 5.14343E-04
 5.60500E-04
 6.08519E-04
 6.58903E-04
 1.04582E-04
 1.55623E-04
 2.03327E-04
 2.47554E-04
 2.85158E-04
 3.16013E-04
 3.44089E-04
 3.68314E-04
 3.91725E-04
 4.15200E-04
 4.43779E-04
 4.79717E-04
 5.20891E-04
 5.65593E-04
 6.14124E-04
 6.63655E-04
 1.04249E-04
 1.55547E-04
 2.06303E-04
 2.50915E-04
 2.88627E-04
 3.20181E-04
 3.46550E-04
 3.69139E-04
 3.91124E-04
 4.13247E-04
 4.39597E-04