# vtk DataFile Version 2.0
Output of NLACE
ASCII
DATASET UNSTRUCTURED_GRID
POINTS           27 FLOAT
 0.000000E+00  0.000000E+00  0.000000E+00
 5.000000E+00  0.000000E+00  0.000000E+00
 1.000000E+01  0.000000E+00  0.000000E+00
 0.000000E+00  5.000000E+00  0.000000E+00
 5.000000E+00  5.000000E+00  0.000000E+00
 1.000000E+01  5.000000E+00  0.000000E+00
 0.000000E+00  1.000000E+01  0.000000E+00
 5.000000E+00  1.000000E+01  0.000000E+00
 1.000000E+01  1.000000E+01  0.000000E+00
 0.000000E+00  0.000000E+00 -5.000000E+00
 5.000000E+00  0.000000E+00 -5.000000E+00
 1.000000E+01  0.000000E+00 -5.000000E+00
 0.000000E+00  5.000000E+00 -5.000000E+00
 5.000000E+00  5.000000E+00 -5.000000E+00
 1.000000E+01  5.000000E+00 -5.000000E+00
 0.000000E+00  1.000000E+01 -5.000000E+00
 5.000000E+00  1.000000E+01 -5.000000E+00
 1.000000E+01  1.000000E+01 -5.000000E+00
 0.000000E+00  0.000000E+00 -1.000000E+01
 5.000000E+00  0.000000E+00 -1.000000E+01
 1.000000E+01  0.000000E+00 -1.000000E+01
 0.000000E+00  5.000000E+00 -1.000000E+01
 5.000000E+00  5.000000E+00 -1.000000E+01
 1.000000E+01  5.000000E+00 -1.000000E+01
 0.000000E+00  1.000000E+01 -1.000000E+01
 5.000000E+00  1.000000E+01 -1.000000E+01
 1.000000E+01  1.000000E+01 -1.000000E+01
CELLS           40         200
4    0    9   12   10
4    4   12   13   10
4    4   12   10    0
4    4    0    3   12
4    1    0    4   10
4    4   10   13   14
4    2   10   14   11
4    2   10    4   14
4    1   10    4    2
4    5    4   14    2
4    6   12   15   16
4    4   12   16   13
4    4   12    6   16
4    3   12    6    4
4    7    6   16    4
4    4   13   16   14
4    8   16   17   14
4    8   16   14    4
4    8    4    7   16
4    5    4    8   14
4   12   18   21   22
4   10   18   22   19
4   10   18   12   22
4    9   18   12   10
4   13   12   22   10
4   10   19   22   20
4   14   22   23   20
4   14   22   20   10
4   14   10   13   22
4   11   10   14   20
4   12   21   24   22
4   16   24   25   22
4   16   24   22   12
4   16   12   15   24
4   13   12   16   22
4   16   22   25   26
4   14   22   26   23
4   14   22   16   26
4   13   22   16   14
4   17   16   26   14
CELL_TYPES           40
10
10
10
10
10
10
10
10
10
10
10
10
10
10
10
10
10
10
10
10
10
10
10
10
10
10
10
10
10
10
10
10
10
10
10
10
10
10
10
10
POINT_DATA           27
 SCALARS measuredDisp11 float  1                   
LOOKUP_TABLE default
 0.00000E+00
 1.57460E-01
 2.98842E-01
 0.00000E+00
 1.37732E-01
 2.66443E-01
 0.00000E+00
 1.36560E-01
 2.23405E-01
 1.82225E-02
 1.96294E-01
 3.71616E-01
 3.82720E-02
 1.87415E-01
 3.01653E-01
 8.31646E-02
 1.72999E-01
 2.53602E-01
 1.55569E-01
 3.25697E-01
 4.67040E-01
 1.63940E-01
 3.03214E-01
 4.37652E-01
 1.72213E-01
 3.01238E-01
 3.98663E-01
 SCALARS measuredDisp12 float  1                   
LOOKUP_TABLE default
 0.00000E+00
 0.00000E+00
 0.00000E+00
 1.71517E-01
 1.44846E-01
 1.87302E-01
 2.51205E-01
 2.61956E-01
 2.48807E-01
 1.37158E-01
 1.19373E-01
 1.76316E-01
 2.84133E-01
 2.96933E-01
 2.97628E-01
 4.15316E-01
 3.67205E-01
 3.96767E-01
 4.96589E-01
 5.14190E-01
 5.21946E-01
 6.74469E-01
 6.48242E-01
 6.86881E-01
 7.62941E-01
 7.68362E-01
 7.59599E-01
 SCALARS measuredDisp13 float  1                   
LOOKUP_TABLE default
 0.00000E+00
 0.00000E+00
 0.00000E+00
 0.00000E+00
 0.00000E+00
 0.00000E+00
 0.00000E+00
 0.00000E+00
 0.00000E+00
-5.75850E-02
 1.38164E-02
 9.76974E-02
 1.76552E-01
 2.58969E-01
 3.39514E-01
 4.24913E-01
 5.03914E-01
 5.88897E-01
-6.23291E-02
 8.98331E-02
 2.34177E-01
 3.86564E-01
 5.26680E-01
 6.80646E-01
 8.30741E-01
 9.74351E-01
 1.12654E+00
 SCALARS measuredDisp14 float  1                   
LOOKUP_TABLE default
 7.26620E-02
 9.98380E-02
 1.11797E-01
 1.39834E-01
 1.58711E-01
 1.77913E-01
 2.04596E-01
 2.19611E-01
 2.51763E-01
 8.16604E-02
 9.29778E-02
 1.17896E-01
 1.36093E-01
 1.57241E-01
 1.78100E-01
 1.97526E-01
 2.23066E-01
 2.37576E-01
 7.39901E-02
 1.00909E-01
 1.14103E-01
 1.37414E-01
 1.54953E-01
 1.73638E-01
 1.97614E-01
 2.11800E-01
 2.38871E-01
 SCALARS predictedDisp11 float  1                  
LOOKUP_TABLE default
 0.00000E+00
 0.00000E+00
 0.00000E+00
 0.00000E+00
 0.00000E+00
 0.00000E+00
 0.00000E+00
 0.00000E+00
 0.00000E+00
 0.00000E+00
 0.00000E+00
 0.00000E+00
 0.00000E+00
 0.00000E+00
 0.00000E+00
 0.00000E+00
 0.00000E+00
 0.00000E+00
 0.00000E+00
 0.00000E+00
 0.00000E+00
 0.00000E+00
 0.00000E+00
 0.00000E+00
 0.00000E+00
 0.00000E+00
 0.00000E+00
 SCALARS predictedDisp12 float  1                  
LOOKUP_TABLE default
 0.00000E+00
 0.00000E+00
 0.00000E+00
 0.00000E+00
 0.00000E+00
 0.00000E+00
 0.00000E+00
 0.00000E+00
 0.00000E+00
 0.00000E+00
 0.00000E+00
 0.00000E+00
 0.00000E+00
 0.00000E+00
 0.00000E+00
 0.00000E+00
 0.00000E+00
 0.00000E+00
 0.00000E+00
 0.00000E+00
 0.00000E+00
 0.00000E+00
 0.00000E+00
 0.00000E+00
 0.00000E+00
 0.00000E+00
 0.00000E+00
 SCALARS predictedDisp13 float  1                  
LOOKUP_TABLE default
 0.00000E+00
 0.00000E+00
 0.00000E+00
 0.00000E+00
 0.00000E+00
 0.00000E+00
 0.00000E+00
 0.00000E+00
 0.00000E+00
 0.00000E+00
 0.00000E+00
 0.00000E+00
 0.00000E+00
 0.00000E+00
 0.00000E+00
 0.00000E+00
 0.00000E+00
 0.00000E+00
 0.00000E+00
 0.00000E+00
 0.00000E+00
 0.00000E+00
 0.00000E+00
 0.00000E+00
 0.00000E+00
 0.00000E+00
 0.00000E+00
 SCALARS predictedDisp14 float  1                  
LOOKUP_TABLE default
 0.00000E+00
 0.00000E+00
 0.00000E+00
 0.00000E+00
 0.00000E+00
 0.00000E+00
 0.00000E+00
 0.00000E+00
 0.00000E+00
 0.00000E+00
 0.00000E+00
 0.00000E+00
 0.00000E+00
 0.00000E+00
 0.00000E+00
 0.00000E+00
 0.00000E+00
 0.00000E+00
 0.00000E+00
 0.00000E+00
 0.00000E+00
 0.00000E+00
 0.00000E+00
 0.00000E+00
 0.00000E+00
 0.00000E+00
 0.00000E+00
 SCALARS dual11 float  1                           
LOOKUP_TABLE default
 0.00000E+00
 5.65327E+00
 6.78569E+00
 0.00000E+00
 5.33687E+00
 6.11770E+00
 0.00000E+00
 4.96858E+00
 4.58961E+00
 8.18719E+00
 9.05718E+00
 9.45162E+00
 8.24796E+00
 8.84462E+00
 8.60807E+00
 8.70117E+00
 8.32590E+00
 7.38382E+00
 1.45464E+01
 1.38578E+01
 1.33895E+01
 1.40876E+01
 1.35341E+01
 1.29212E+01
 1.38056E+01
 1.31285E+01
 1.26688E+01
 SCALARS dual12 float  1                           
LOOKUP_TABLE default
 0.00000E+00
 0.00000E+00
 0.00000E+00
 9.01230E+00
 8.87679E+00
 9.54423E+00
 9.58856E+00
 9.84699E+00
 9.61031E+00
 1.42692E+01
 1.45466E+01
 1.53419E+01
 1.52313E+01
 1.57528E+01
 1.59069E+01
 1.53083E+01
 1.51254E+01
 1.54654E+01
 2.58604E+01
 2.59152E+01
 2.65175E+01
 2.49965E+01
 2.53249E+01
 2.57523E+01
 2.43896E+01
 2.45760E+01
 2.52557E+01
 SCALARS dual13 float  1                           
LOOKUP_TABLE default
 0.00000E+00
 0.00000E+00
 0.00000E+00
 0.00000E+00
 0.00000E+00
 0.00000E+00
 0.00000E+00
 0.00000E+00
 0.00000E+00
-9.68150E+00
-5.19798E+00
-2.78901E+00
-1.16123E+00
 2.44464E+00
 5.97512E+00
 4.43828E+00
 9.19736E+00
 1.16905E+01
-9.69761E+00
-5.20681E+00
-1.31574E+00
-6.05371E-01
 4.29194E+00
 7.60435E+00
 7.81679E+00
 1.17519E+01
 1.63567E+01
 SCALARS dual14 float  1                           
LOOKUP_TABLE default
 4.37711E+00
 3.03384E+00
 2.42698E+00
 2.14300E+00
 1.31760E+00
 4.37301E-01
 3.76265E-01
-4.19665E-01
-1.73348E+00
 2.13720E+00
 1.76174E+00
 9.92855E-01
 1.04087E+00
 3.33465E-01
-2.94081E-01
-2.64859E-01
-1.00814E+00
-1.45188E+00
 8.36549E-01
 5.82204E-01
 1.09642E-01
 1.61254E-01
-3.14235E-01
-5.78949E-01
-7.68855E-01
-1.01333E+00
-1.50480E+00
 SCALARS NLP float  1                              
LOOKUP_TABLE default
 1.00000E+00
 1.00000E+00
 1.00000E+00
 1.00000E+00
 1.00000E+00
 1.00000E+00
 1.00000E+00
 1.00000E+00
 1.00000E+00
 1.00000E+00
 1.00000E+00
 1.00000E+00
 1.00000E+00
 1.00000E+00
 1.00000E+00
 1.00000E+00
 1.00000E+00
 1.00000E+00
 1.00000E+00
 1.00000E+00
 1.00000E+00
 1.00000E+00
 1.00000E+00
 1.00000E+00
 1.00000E+00
 1.00000E+00
 1.00000E+00
 SCALARS SM float  1                               
LOOKUP_TABLE default
 3.00000E+00
 3.00000E+00
 3.00000E+00
 3.00000E+00
 3.00000E+00
 3.00000E+00
 3.00000E+00
 3.00000E+00
 3.00000E+00
 3.00000E+00
 3.00000E+00
 3.00000E+00
 3.00000E+00
 3.00000E+00
 3.00000E+00
 3.00000E+00
 3.00000E+00
 3.00000E+00
 3.00000E+00
 3.00000E+00
 3.00000E+00
 3.00000E+00
 3.00000E+00
 3.00000E+00
 3.00000E+00
 3.00000E+00
 3.00000E+00
 SCALARS property3 float  1                        
LOOKUP_TABLE default
 0.00000E+00
 0.00000E+00
 0.00000E+00
 0.00000E+00
 0.00000E+00
 0.00000E+00
 0.00000E+00
 0.00000E+00
 0.00000E+00
 0.00000E+00
 0.00000E+00
 0.00000E+00
 0.00000E+00
 0.00000E+00
 0.00000E+00
 0.00000E+00
 0.00000E+00
 0.00000E+00
 0.00000E+00
 0.00000E+00
 0.00000E+00
 0.00000E+00
 0.00000E+00
 0.00000E+00
 0.00000E+00
 0.00000E+00
 0.00000E+00
 SCALARS property4 float  1                        
LOOKUP_TABLE default
 0.00000E+00
 0.00000E+00
 0.00000E+00
 0.00000E+00
 0.00000E+00
 0.00000E+00
 0.00000E+00
 0.00000E+00
 0.00000E+00
 0.00000E+00
 0.00000E+00
 0.00000E+00
 0.00000E+00
 0.00000E+00
 0.00000E+00
 0.00000E+00
 0.00000E+00
 0.00000E+00
 0.00000E+00
 0.00000E+00
 0.00000E+00
 0.00000E+00
 0.00000E+00
 0.00000E+00
 0.00000E+00
 0.00000E+00
 0.00000E+00
 SCALARS property5 float  1                        
LOOKUP_TABLE default
 0.00000E+00
 0.00000E+00
 0.00000E+00
 0.00000E+00
 0.00000E+00
 0.00000E+00
 0.00000E+00
 0.00000E+00
 0.00000E+00
 0.00000E+00
 0.00000E+00
 0.00000E+00
 0.00000E+00
 0.00000E+00
 0.00000E+00
 0.00000E+00
 0.00000E+00
 0.00000E+00
 0.00000E+00
 0.00000E+00
 0.00000E+00
 0.00000E+00
 0.00000E+00
 0.00000E+00
 0.00000E+00
 0.00000E+00
 0.00000E+00
 SCALARS gradient1 float  1                        
LOOKUP_TABLE default
 0.00000E+00
 0.00000E+00
 0.00000E+00
 0.00000E+00
 0.00000E+00
 0.00000E+00
 0.00000E+00
 0.00000E+00
 0.00000E+00
 0.00000E+00
 0.00000E+00
 0.00000E+00
 0.00000E+00
 0.00000E+00
 0.00000E+00
 0.00000E+00
 0.00000E+00
 0.00000E+00
 0.00000E+00
 0.00000E+00
 0.00000E+00
 0.00000E+00
 0.00000E+00
 0.00000E+00
 0.00000E+00
 0.00000E+00
 0.00000E+00
 SCALARS gradient2 float  1                        
LOOKUP_TABLE default
 0.00000E+00
 0.00000E+00
 0.00000E+00
 0.00000E+00
 0.00000E+00
 0.00000E+00
 0.00000E+00
 0.00000E+00
 0.00000E+00
 0.00000E+00
 0.00000E+00
 0.00000E+00
 0.00000E+00
 0.00000E+00
 0.00000E+00
 0.00000E+00
 0.00000E+00
 0.00000E+00
 0.00000E+00
 0.00000E+00
 0.00000E+00
 0.00000E+00
 0.00000E+00
 0.00000E+00
 0.00000E+00
 0.00000E+00
 0.00000E+00
 SCALARS gradient3 float  1                        
LOOKUP_TABLE default
 0.00000E+00
 0.00000E+00
 0.00000E+00
 0.00000E+00
 0.00000E+00
 0.00000E+00
 0.00000E+00
 0.00000E+00
 0.00000E+00
 0.00000E+00
 0.00000E+00
 0.00000E+00
 0.00000E+00
 0.00000E+00
 0.00000E+00
 0.00000E+00
 0.00000E+00
 0.00000E+00
 0.00000E+00
 0.00000E+00
 0.00000E+00
 0.00000E+00
 0.00000E+00
 0.00000E+00
 0.00000E+00
 0.00000E+00
 0.00000E+00
 SCALARS gradient4 float  1                        
LOOKUP_TABLE default
 0.00000E+00
 0.00000E+00
 0.00000E+00
 0.00000E+00
 0.00000E+00
 0.00000E+00
 0.00000E+00
 0.00000E+00
 0.00000E+00
 0.00000E+00
 0.00000E+00
 0.00000E+00
 0.00000E+00
 0.00000E+00
 0.00000E+00
 0.00000E+00
 0.00000E+00
 0.00000E+00
 0.00000E+00
 0.00000E+00
 0.00000E+00
 0.00000E+00
 0.00000E+00
 0.00000E+00
 0.00000E+00
 0.00000E+00
 0.00000E+00
 SCALARS gradient5 float  1                        
LOOKUP_TABLE default
 0.00000E+00
 0.00000E+00
 0.00000E+00
 0.00000E+00
 0.00000E+00
 0.00000E+00
 0.00000E+00
 0.00000E+00
 0.00000E+00
 0.00000E+00
 0.00000E+00
 0.00000E+00
 0.00000E+00
 0.00000E+00
 0.00000E+00
 0.00000E+00
 0.00000E+00
 0.00000E+00
 3.75195E+01
 2.42257E+01
-5.95672E+00
-4.45996E+00
-1.27166E+02
-5.62940E+01
-5.31224E+01
-8.30884E+01
-9.72571E+01
