# vtk DataFile Version 2.0
Output of NLACE
ASCII
DATASET UNSTRUCTURED_GRID
POINTS         3375 FLOAT
 0.000000E+00  0.000000E+00  0.000000E+00
 7.142857E-02  0.000000E+00  0.000000E+00
 1.428571E-01  0.000000E+00  0.000000E+00
 2.142857E-01  0.000000E+00  0.000000E+00
 2.857143E-01  0.000000E+00  0.000000E+00
 3.571429E-01  0.000000E+00  0.000000E+00
 4.285714E-01  0.000000E+00  0.000000E+00
 5.000000E-01  0.000000E+00  0.000000E+00
 5.714286E-01  0.000000E+00  0.000000E+00
 6.428571E-01  0.000000E+00  0.000000E+00
 7.142857E-01  0.000000E+00  0.000000E+00
 7.857143E-01  0.000000E+00  0.000000E+00
 8.571429E-01  0.000000E+00  0.000000E+00
 9.285714E-01  0.000000E+00  0.000000E+00
 1.000000E+00  0.000000E+00  0.000000E+00
 0.000000E+00  7.142857E-02  0.000000E+00
 7.142857E-02  7.142857E-02  0.000000E+00
 1.428571E-01  7.142857E-02  0.000000E+00
 2.142857E-01  7.142857E-02  0.000000E+00
 2.857143E-01  7.142857E-02  0.000000E+00
 3.571429E-01  7.142857E-02  0.000000E+00
 4.285714E-01  7.142857E-02  0.000000E+00
 5.000000E-01  7.142857E-02  0.000000E+00
 5.714286E-01  7.142857E-02  0.000000E+00
 6.428571E-01  7.142857E-02  0.000000E+00
 7.142857E-01  7.142857E-02  0.000000E+00
 7.857143E-01  7.142857E-02  0.000000E+00
 8.571429E-01  7.142857E-02  0.000000E+00
 9.285714E-01  7.142857E-02  0.000000E+00
 1.000000E+00  7.142857E-02  0.000000E+00
 0.000000E+00  1.428571E-01  0.000000E+00
 7.142857E-02  1.428571E-01  0.000000E+00
 1.428571E-01  1.428571E-01  0.000000E+00
 2.142857E-01  1.428571E-01  0.000000E+00
 2.857143E-01  1.428571E-01  0.000000E+00
 3.571429E-01  1.428571E-01  0.000000E+00
 4.285714E-01  1.428571E-01  0.000000E+00
 5.000000E-01  1.428571E-01  0.000000E+00
 5.714286E-01  1.428571E-01  0.000000E+00
 6.428571E-01  1.428571E-01  0.000000E+00
 7.142857E-01  1.428571E-01  0.000000E+00
 7.857143E-01  1.428571E-01  0.000000E+00
 8.571429E-01  1.428571E-01  0.000000E+00
 9.285714E-01  1.428571E-01  0.000000E+00
 1.000000E+00  1.428571E-01  0.000000E+00
 0.000000E+00  2.142857E-01  0.000000E+00
 7.142857E-02  2.142857E-01  0.000000E+00
 1.428571E-01  2.142857E-01  0.000000E+00
 2.142857E-01  2.142857E-01  0.000000E+00
 2.857143E-01  2.142857E-01  0.000000E+00
 3.571429E-01  2.142857E-01  0.000000E+00
 4.285714E-01  2.142857E-01  0.000000E+00
 5.000000E-01  2.142857E-01  0.000000E+00
 5.714286E-01  2.142857E-01  0.000000E+00
 6.428571E-01  2.142857E-01  0.000000E+00
 7.142857E-01  2.142857E-01  0.000000E+00
 7.857143E-01  2.142857E-01  0.000000E+00
 8.571429E-01  2.142857E-01  0.000000E+00
 9.285714E-01  2.142857E-01  0.000000E+00
 1.000000E+00  2.142857E-01  0.000000E+00
 0.000000E+00  2.857143E-01  0.000000E+00
 7.142857E-02  2.857143E-01  0.000000E+00
 1.428571E-01  2.857143E-01  0.000000E+00
 2.142857E-01  2.857143E-01  0.000000E+00
 2.857143E-01  2.857143E-01  0.000000E+00
 3.571429E-01  2.857143E-01  0.000000E+00
 4.285714E-01  2.857143E-01  0.000000E+00
 5.000000E-01  2.857143E-01  0.000000E+00
 5.714286E-01  2.857143E-01  0.000000E+00
 6.428571E-01  2.857143E-01  0.000000E+00
 7.142857E-01  2.857143E-01  0.000000E+00
 7.857143E-01  2.857143E-01  0.000000E+00
 8.571429E-01  2.857143E-01  0.000000E+00
 9.285714E-01  2.857143E-01  0.000000E+00
 1.000000E+00  2.857143E-01  0.000000E+00
 0.000000E+00  3.571429E-01  0.000000E+00
 7.142857E-02  3.571429E-01  0.000000E+00
 1.428571E-01  3.571429E-01  0.000000E+00
 2.142857E-01  3.571429E-01  0.000000E+00
 2.857143E-01  3.571429E-01  0.000000E+00
 3.571429E-01  3.571429E-01  0.000000E+00
 4.285714E-01  3.571429E-01  0.000000E+00
 5.000000E-01  3.571429E-01  0.000000E+00
 5.714286E-01  3.571429E-01  0.000000E+00
 6.428571E-01  3.571429E-01  0.000000E+00
 7.142857E-01  3.571429E-01  0.000000E+00
 7.857143E-01  3.571429E-01  0.000000E+00
 8.571429E-01  3.571429E-01  0.000000E+00
 9.285714E-01  3.571429E-01  0.000000E+00
 1.000000E+00  3.571429E-01  0.000000E+00
 0.000000E+00  4.285714E-01  0.000000E+00
 7.142857E-02  4.285714E-01  0.000000E+00
 1.428571E-01  4.285714E-01  0.000000E+00
 2.142857E-01  4.285714E-01  0.000000E+00
 2.857143E-01  4.285714E-01  0.000000E+00
 3.571429E-01  4.285714E-01  0.000000E+00
 4.285714E-01  4.285714E-01  0.000000E+00
 5.000000E-01  4.285714E-01  0.000000E+00
 5.714286E-01  4.285714E-01  0.000000E+00
 6.428571E-01  4.285714E-01  0.000000E+00
 7.142857E-01  4.285714E-01  0.000000E+00
 7.857143E-01  4.285714E-01  0.000000E+00
 8.571429E-01  4.285714E-01  0.000000E+00
 9.285714E-01  4.285714E-01  0.000000E+00
 1.000000E+00  4.285714E-01  0.000000E+00
 0.000000E+00  5.000000E-01  0.000000E+00
 7.142857E-02  5.000000E-01  0.000000E+00
 1.428571E-01  5.000000E-01  0.000000E+00
 2.142857E-01  5.000000E-01  0.000000E+00
 2.857143E-01  5.000000E-01  0.000000E+00
 3.571429E-01  5.000000E-01  0.000000E+00
 4.285714E-01  5.000000E-01  0.000000E+00
 5.000000E-01  5.000000E-01  0.000000E+00
 5.714286E-01  5.000000E-01  0.000000E+00
 6.428571E-01  5.000000E-01  0.000000E+00
 7.142857E-01  5.000000E-01  0.000000E+00
 7.857143E-01  5.000000E-01  0.000000E+00
 8.571429E-01  5.000000E-01  0.000000E+00
 9.285714E-01  5.000000E-01  0.000000E+00
 1.000000E+00  5.000000E-01  0.000000E+00
 0.000000E+00  5.714286E-01  0.000000E+00
 7.142857E-02  5.714286E-01  0.000000E+00
 1.428571E-01  5.714286E-01  0.000000E+00
 2.142857E-01  5.714286E-01  0.000000E+00
 2.857143E-01  5.714286E-01  0.000000E+00
 3.571429E-01  5.714286E-01  0.000000E+00
 4.285714E-01  5.714286E-01  0.000000E+00
 5.000000E-01  5.714286E-01  0.000000E+00
 5.714286E-01  5.714286E-01  0.000000E+00
 6.428571E-01  5.714286E-01  0.000000E+00
 7.142857E-01  5.714286E-01  0.000000E+00
 7.857143E-01  5.714286E-01  0.000000E+00
 8.571429E-01  5.714286E-01  0.000000E+00
 9.285714E-01  5.714286E-01  0.000000E+00
 1.000000E+00  5.714286E-01  0.000000E+00
 0.000000E+00  6.428571E-01  0.000000E+00
 7.142857E-02  6.428571E-01  0.000000E+00
 1.428571E-01  6.428571E-01  0.000000E+00
 2.142857E-01  6.428571E-01  0.000000E+00
 2.857143E-01  6.428571E-01  0.000000E+00
 3.571429E-01  6.428571E-01  0.000000E+00
 4.285714E-01  6.428571E-01  0.000000E+00
 5.000000E-01  6.428571E-01  0.000000E+00
 5.714286E-01  6.428571E-01  0.000000E+00
 6.428571E-01  6.428571E-01  0.000000E+00
 7.142857E-01  6.428571E-01  0.000000E+00
 7.857143E-01  6.428571E-01  0.000000E+00
 8.571429E-01  6.428571E-01  0.000000E+00
 9.285714E-01  6.428571E-01  0.000000E+00
 1.000000E+00  6.428571E-01  0.000000E+00
 0.000000E+00  7.142857E-01  0.000000E+00
 7.142857E-02  7.142857E-01  0.000000E+00
 1.428571E-01  7.142857E-01  0.000000E+00
 2.142857E-01  7.142857E-01  0.000000E+00
 2.857143E-01  7.142857E-01  0.000000E+00
 3.571429E-01  7.142857E-01  0.000000E+00
 4.285714E-01  7.142857E-01  0.000000E+00
 5.000000E-01  7.142857E-01  0.000000E+00
 5.714286E-01  7.142857E-01  0.000000E+00
 6.428571E-01  7.142857E-01  0.000000E+00
 7.142857E-01  7.142857E-01  0.000000E+00
 7.857143E-01  7.142857E-01  0.000000E+00
 8.571429E-01  7.142857E-01  0.000000E+00
 9.285714E-01  7.142857E-01  0.000000E+00
 1.000000E+00  7.142857E-01  0.000000E+00
 0.000000E+00  7.857143E-01  0.000000E+00
 7.142857E-02  7.857143E-01  0.000000E+00
 1.428571E-01  7.857143E-01  0.000000E+00
 2.142857E-01  7.857143E-01  0.000000E+00
 2.857143E-01  7.857143E-01  0.000000E+00
 3.571429E-01  7.857143E-01  0.000000E+00
 4.285714E-01  7.857143E-01  0.000000E+00
 5.000000E-01  7.857143E-01  0.000000E+00
 5.714286E-01  7.857143E-01  0.000000E+00
 6.428571E-01  7.857143E-01  0.000000E+00
 7.142857E-01  7.857143E-01  0.000000E+00
 7.857143E-01  7.857143E-01  0.000000E+00
 8.571429E-01  7.857143E-01  0.000000E+00
 9.285714E-01  7.857143E-01  0.000000E+00
 1.000000E+00  7.857143E-01  0.000000E+00
 0.000000E+00  8.571429E-01  0.000000E+00
 7.142857E-02  8.571429E-01  0.000000E+00
 1.428571E-01  8.571429E-01  0.000000E+00
 2.142857E-01  8.571429E-01  0.000000E+00
 2.857143E-01  8.571429E-01  0.000000E+00
 3.571429E-01  8.571429E-01  0.000000E+00
 4.285714E-01  8.571429E-01  0.000000E+00
 5.000000E-01  8.571429E-01  0.000000E+00
 5.714286E-01  8.571429E-01  0.000000E+00
 6.428571E-01  8.571429E-01  0.000000E+00
 7.142857E-01  8.571429E-01  0.000000E+00
 7.857143E-01  8.571429E-01  0.000000E+00
 8.571429E-01  8.571429E-01  0.000000E+00
 9.285714E-01  8.571429E-01  0.000000E+00
 1.000000E+00  8.571429E-01  0.000000E+00
 0.000000E+00  9.285714E-01  0.000000E+00
 7.142857E-02  9.285714E-01  0.000000E+00
 1.428571E-01  9.285714E-01  0.000000E+00
 2.142857E-01  9.285714E-01  0.000000E+00
 2.857143E-01  9.285714E-01  0.000000E+00
 3.571429E-01  9.285714E-01  0.000000E+00
 4.285714E-01  9.285714E-01  0.000000E+00
 5.000000E-01  9.285714E-01  0.000000E+00
 5.714286E-01  9.285714E-01  0.000000E+00
 6.428571E-01  9.285714E-01  0.000000E+00
 7.142857E-01  9.285714E-01  0.000000E+00
 7.857143E-01  9.285714E-01  0.000000E+00
 8.571429E-01  9.285714E-01  0.000000E+00
 9.285714E-01  9.285714E-01  0.000000E+00
 1.000000E+00  9.285714E-01  0.000000E+00
 0.000000E+00  1.000000E+00  0.000000E+00
 7.142857E-02  1.000000E+00  0.000000E+00
 1.428571E-01  1.000000E+00  0.000000E+00
 2.142857E-01  1.000000E+00  0.000000E+00
 2.857143E-01  1.000000E+00  0.000000E+00
 3.571429E-01  1.000000E+00  0.000000E+00
 4.285714E-01  1.000000E+00  0.000000E+00
 5.000000E-01  1.000000E+00  0.000000E+00
 5.714286E-01  1.000000E+00  0.000000E+00
 6.428571E-01  1.000000E+00  0.000000E+00
 7.142857E-01  1.000000E+00  0.000000E+00
 7.857143E-01  1.000000E+00  0.000000E+00
 8.571429E-01  1.000000E+00  0.000000E+00
 9.285714E-01  1.000000E+00  0.000000E+00
 1.000000E+00  1.000000E+00  0.000000E+00
 0.000000E+00  0.000000E+00 -7.142857E-02
 7.142857E-02  0.000000E+00 -7.142857E-02
 1.428571E-01  0.000000E+00 -7.142857E-02
 2.142857E-01  0.000000E+00 -7.142857E-02
 2.857143E-01  0.000000E+00 -7.142857E-02
 3.571429E-01  0.000000E+00 -7.142857E-02
 4.285714E-01  0.000000E+00 -7.142857E-02
 5.000000E-01  0.000000E+00 -7.142857E-02
 5.714286E-01  0.000000E+00 -7.142857E-02
 6.428571E-01  0.000000E+00 -7.142857E-02
[...]
POINT_DATA         3375
 SCALARS predictedDisp11 float  1                  
LOOKUP_TABLE default
 0.00000E+00
 4.78017E-04
-2.53753E-03
-2.53409E-02
-8.04761E-02
-2.60934E-01
 1.66809E-03
 2.64036E-01
 8.29307E-02
 2.69278E-02
 3.13141E-03
-8.04720E-04
-1.19053E-03
-6.24564E-04
 0.00000E+00
 0.00000E+00
 4.57748E-03
 9.22289E-03
 1.35345E-02
 1.44115E-02
 3.20707E-02
 5.10247E-04
-3.12741E-02
-1.42393E-02
-1.43153E-02
-1.11935E-02
-7.97724E-03
-5.09242E-03
-2.45933E-03
 0.00000E+00
 0.00000E+00
 8.27009E-03
 1.78965E-02
 2.79634E-02
 4.13238E-02
 2.82287E-02
-3.61183E-04
-2.92011E-02
-4.29919E-02
-3.07128E-02
-2.21159E-02
-1.43974E-02
-8.72441E-03
-4.12112E-03
 0.00000E+00
 0.00000E+00
 9.56453E-03
 1.90151E-02
 2.92809E-02
 3.10625E-02
 2.47939E-02
-1.01314E-03
-2.70735E-02
-3.41012E-02
-3.35121E-02
-2.48383E-02
-1.75493E-02
-1.08024E-02
-5.18244E-03
 0.00000E+00
 0.00000E+00
 8.45500E-03
 1.68460E-02
 2.19368E-02
 2.37216E-02
 1.42383E-02
-1.48487E-03
-1.74770E-02
-2.76968E-02
-2.70465E-02
-2.35251E-02
-1.70742E-02
-1.11837E-02
-5.40306E-03
 0.00000E+00
 0.00000E+00
 6.77675E-03
 1.22336E-02
 1.61600E-02
 1.46986E-02
 9.03479E-03
-1.85199E-03
-1.29452E-02
-1.92100E-02
-2.16486E-02
-1.89566E-02
-1.51077E-02
-9.98920E-03
-5.02960E-03
 0.00000E+00
 0.00000E+00
 4.62701E-03
 8.60597E-03
 1.01312E-02
 9.39189E-03
 4.62042E-03
-2.10401E-03
-8.96065E-03
-1.41594E-02
-1.55298E-02
-1.48964E-02
-1.18724E-02
-8.31897E-03
-4.16588E-03
 0.00000E+00
 0.00000E+00
 3.03479E-03
 5.19518E-03
 6.25290E-03
 5.01447E-03
 2.15984E-03
-2.22882E-03
-6.70973E-03
-9.74697E-03
-1.13291E-02
-1.06682E-02
-9.01399E-03
-6.27109E-03
-3.25748E-03
 0.00000E+00
 0.00000E+00
 1.68528E-03
 2.96983E-03
 3.18219E-03
 2.42469E-03
 3.86303E-04
-2.25687E-03
-4.88026E-03
-6.95551E-03
-7.71529E-03
-7.56596E-03
-6.29720E-03
-4.54552E-03
-2.33272E-03
 0.00000E+00
 0.00000E+00
 8.30559E-04
 1.31595E-03
 1.33748E-03
 6.26179E-04
-5.94803E-04
-2.16534E-03
-3.71138E-03
-4.77144E-03
-5.29415E-03
-5.03871E-03
-4.29530E-03
-3.06212E-03
-1.60504E-03
 0.00000E+00
 0.00000E+00
 2.40550E-04
 3.35019E-04
 1.19509E-04
-3.84383E-04
-1.16221E-03
-2.04562E-03
-2.82760E-03
-3.37989E-03
-3.53925E-03
-3.34688E-03
-2.80009E-03
-2.01153E-03
-1.04601E-03
 0.00000E+00
 0.00000E+00
-1.05387E-04
-2.87603E-04
-5.80554E-04
-9.94323E-04
-1.47550E-03
-1.94245E-03
-2.30891E-03
-2.50553E-03
-2.48403E-03
-2.27211E-03
-1.85962E-03
-1.32739E-03
-6.83976E-04
 0.00000E+00
 0.00000E+00
-3.28653E-04
-6.76427E-04
-1.04201E-03
-1.41175E-03
-1.74597E-03
-1.99642E-03
-2.14735E-03
-2.13624E-03
-2.02859E-03
-1.75321E-03
-1.42568E-03
-9.79492E-04
-5.11803E-04
 0.00000E+00
 0.00000E+00
-4.96885E-04
-9.80772E-04
-1.44366E-03
-1.84673E-03
-2.15616E-03
-2.36127E-03
-2.39887E-03
-2.34736E-03
-2.11244E-03
-1.84325E-03
-1.42651E-03
-1.00769E-03
-5.03572E-04
 0.00000E+00
 0.00000E+00
-6.47925E-04
-1.29302E-03
-1.90170E-03
-2.44798E-03
-2.88496E-03
-3.14763E-03
-3.27037E-03
-3.15175E-03
-2.93892E-03
-2.49821E-03
-2.02021E-03
-1.37807E-03
-7.20501E-04
 0.00000E+00
 0.00000E+00
 8.20917E-04
-1.71525E-03
-1.40778E-02
-5.88189E-02
-1.16774E-01
 1.70249E-03
 1.19931E-01
 6.13242E-02
 1.56631E-02
 2.33936E-03
-1.18696E-03
-1.18211E-03
-6.49198E-04
 0.00000E+00
 0.00000E+00
 4.36611E-03
 8.58853E-03
 1.18567E-02
 1.51878E-02
 1.31522E-03
 5.51329E-04
-4.36754E-04
-1.49457E-02
-1.25567E-02
-1.04767E-02
-7.63231E-03
-4.87095E-03
-2.36922E-03
 0.00000E+00
 0.00000E+00
 7.70324E-03
 1.59814E-02
 2.60057E-02
 2.96075E-02
 2.79698E-02
-3.01138E-04
-2.88115E-02
-3.11528E-02
-2.86369E-02
-2.00283E-02
-1.35952E-02
-8.30272E-03
-3.95096E-03
 0.00000E+00
 0.00000E+00
 8.73739E-03
 1.80380E-02
 2.50495E-02
 2.98030E-02
 1.90979E-02
-9.09535E-04
-2.12084E-02
-3.26788E-02
-2.90915E-02
-2.36692E-02
-1.63808E-02
-1.03671E-02
-4.94676E-03
 0.00000E+00
 0.00000E+00
 8.13811E-03
 1.52096E-02
 2.12153E-02
 2.04512E-02
 1.39200E-02
-1.38059E-03
-1.69261E-02
-2.42090E-02
-2.61396E-02
-2.16124E-02
-1.64889E-02
-1.05894E-02
-5.22907E-03
 0.00000E+00
 0.00000E+00
 6.23771E-03
 1.19139E-02
 1.45934E-02
 1.44065E-02
 7.92063E-03
-1.74080E-03
-1.16119E-02
-1.87034E-02
-1.98272E-02
-1.84323E-02
-1.42004E-02
-9.70773E-03
-4.79162E-03
 0.00000E+00
 0.00000E+00
 4.52347E-03
 7.92093E-03
 9.93500E-03
 8.50167E-03
 4.56938E-03
-2.01467E-03
-8.73827E-03
-1.30509E-02
-1.51509E-02
-1.39501E-02
-1.15706E-02
-7.90074E-03
-4.05925E-03
 0.00000E+00
 0.00000E+00
 2.80888E-03
 5.08196E-03
 5.73067E-03
 4.90944E-03
 1.88894E-03
-2.17263E-03
-6.28515E-03
-9.52490E-03
-1.06240E-02
-1.04034E-02
-8.54187E-03
-6.11184E-03
-3.10856E-03
 0.00000E+00
 0.00000E+00
 1.63799E-03
 2.72112E-03
 3.07803E-03
 2.15586E-03
 3.42268E-04
-2.20266E-03
-4.78407E-03
-6.57808E-03
-7.52396E-03
-7.17443E-03
-6.12550E-03
-4.33580E-03
-2.26991E-03
 0.00000E+00
 0.00000E+00
 7.48038E-04
 1.24640E-03
 1.16414E-03
 5.42154E-04
-6.71963E-04
-2.16486E-03
-3.57555E-03
-4.66074E-03
-5.04976E-03
-4.88811E-03
-4.10311E-03
-2.96767E-03
-1.53724E-03
 0.00000E+00
 0.00000E+00
 2.10875E-04
 2.51402E-04
 4.90280E-05
-4.68634E-04
-1.20983E-03
-2.03449E-03
-2.78924E-03
-3.26909E-03
-3.43173E-03
-3.21808E-03
-2.70012E-03
-1.93416E-03
-1.00852E-03
 0.00000E+00
 0.00000E+00
-1.29985E-04
-3.25920E-04
-6.31865E-04
-1.04093E-03
-1.50030E-03
-1.94462E-03
-2.28010E-03
-2.44372E-03
-2.42389E-03
-2.18670E-03
-1.80750E-03
-1.27256E-03
-6.64977E-04
 0.00000E+00
 0.00000E+00
-3.40106E-04
-6.93646E-04
-1.06741E-03
-1.43026E-03
-1.75390E-03
-1.99776E-03
-2.11170E-03
-2.12118E-03
-1.96110E-03
-1.73457E-03
-1.36543E-03
-9.68918E-04
-4.89420E-04
 0.00000E+00
 0.00000E+00
-4.97579E-04
-9.89031E-04
-1.44549E-03
-1.84648E-03
-2.15634E-03
-2.32942E-03
-2.39641E-03
-2.28297E-03
-2.11062E-03
-1.77379E-03
-1.42749E-03
-9.65485E-04
-5.04848E-04
 0.00000E+00
 0.00000E+00
-6.52884E-04
-1.29236E-03
-1.90495E-03
-2.44322E-03
-2.85703E-03
-3.13441E-03
-3.19475E-03
-3.13380E-03
-2.83837E-03
-2.48413E-03
-1.93938E-03
-1.37212E-03
-6.90809E-04
 0.00000E+00
 0.00000E+00
 1.15926E-03
 7.89303E-04
-4.40431E-03
-2.03590E-02
-2.63834E-02
 1.78482E-03
 2.96931E-02
 2.29530E-02
 6.05570E-03
-1.76121E-04
-1.50745E-03
-1.25237E-03
-6.44095E-04
 0.00000E+00
 0.00000E+00
 3.66928E-03
 7.13014E-03
 9.89822E-03
 9.07302E-03
 8.37629E-03
 6.60751E-04
-7.28684E-03
-8.62484E-03
-1.03981E-02
-8.75981E-03
-6.58828E-03
-4.31873E-03
-2.12949E-03
 0.00000E+00
 0.00000E+00
 6.19381E-03
 1.27733E-02
 1.81915E-02
 2.23980E-02
 1.48648E-02
-1.15665E-04
-1.53699E-02
-2.36102E-02
-2.04493E-02
-1.63842E-02
-1.14134E-02
-7.24448E-03
-3.48789E-03
 0.00000E+00
 0.00000E+00
 7.30538E-03
 1.40251E-02
 2.02708E-02
 2.04682E-02
 1.50424E-02
-6.63777E-04
-1.66215E-02
-2.28502E-02
-2.38280E-02
-1.90232E-02
-1.41424E-02
-8.98389E-03
-4.39928E-03
 0.00000E+00
 0.00000E+00
 6.64642E-03
 1.29631E-02
 1.64561E-02
 1.71186E-02
 1.00849E-02
-1.02793E-03
-1.24418E-02
-2.02543E-02
-2.07247E-02
-1.87101E-02
-1.40432E-02
-9.42148E-03
-4.61052E-03
 0.00000E+00
 0.00000E+00
 5.46798E-03
 9.77649E-03
 1.26971E-02
 1.13748E-02
 6.86723E-03
-1.47182E-03
-9.89069E-03
-1.48922E-02
-1.72519E-02
-1.55376E-02
-1.26574E-02
-8.50685E-03
-4.32750E-03
 0.00000E+00
 0.00000E+00
 3.79924E-03
 7.01286E-03
 8.17473E-03
 7.46555E-03
 3.54427E-03
-1.78471E-03
-7.18003E-03
-1.13977E-02
-1.26796E-02
-1.24204E-02
-1.00753E-02
-7.14384E-03
-3.60591E-03
 0.00000E+00
 0.00000E+00
 2.49053E-03
 4.23581E-03
 5.02358E-03
 3.93420E-03
 1.56937E-03
-1.97011E-03
-5.59196E-03
-8.08055E-03
-9.46356E-03
-9.02681E-03
-7.70180E-03
-5.41656E-03
-2.82735E-03
 0.00000E+00
 0.00000E+00
 1.34761E-03
 2.34109E-03
 2.44859E-03
 1.73213E-03
 5.77842E-05
-2.08241E-03
-4.21937E-03
-5.94382E-03
-6.58572E-03
-6.45293E-03
-5.42346E-03
-3.92799E-03
-2.02833E-03
 0.00000E+00
 0.00000E+00
 6.03871E-04
 9.25886E-04
 8.46664E-04
 2.13634E-04
-8.39186E-04
-2.09639E-03
-3.33956E-03
-4.18872E-03
-4.56967E-03
-4.35649E-03
-3.69865E-03
-2.65328E-03
-1.38966E-03
 0.00000E+00
 0.00000E+00
 1.02156E-04
 7.37449E-05
-1.79665E-04
-6.68427E-04
-1.31494E-03
-2.04485E-03
-2.64006E-03
-3.02698E-03
-3.12555E-03
-2.90680E-03
-2.43269E-03
-1.73686E-03
-9.09426E-04
 0.00000E+00
 0.00000E+00
-1.88197E-04
-4.31121E-04
-7.66713E-04
-1.15107E-03
-1.57489E-03
-1.93695E-03
-2.20079E-03
-2.31538E-03
-2.23251E-03
-2.02037E-03
-1.62874E-03
-1.16794E-03
-5.99575E-04
 0.00000E+00
 0.00000E+00
-3.63928E-04
-7.42936E-04
-1.11759E-03
-1.48153E-03
-1.77280E-03
-1.97367E-03
-2.06823E-03
-2.01102E-03
-1.88049E-03
-1.59841E-03
-1.29632E-03
-8.85859E-04
-4.64762E-04
 0.00000E+00
 0.00000E+00
-5.03325E-04
-9.90790E-04
-1.45014E-03
-1.83781E-03
-2.12242E-03
-2.29308E-03
-2.30107E-03
-2.22564E-03
-1.98410E-03
-1.72142E-03
-1.32807E-03
-9.38518E-04
-4.69413E-04
 0.00000E+00
 0.00000E+00
-6.50787E-04
-1.28954E-03
-1.88856E-03
-2.40306E-03
-2.80108E-03
-3.01510E-03
-3.09239E-03
-2.94927E-03
-2.72424E-03
-2.30735E-03
-1.85887E-03
-1.27143E-03
-6.63705E-04
 0.00000E+00
 0.00000E+00
 1.30348E-03
 2.14359E-03
 8.54591E-04
-1.91480E-03
-4.07768E-03
 1.87146E-03
 7.53085E-03
 4.62499E-03
 8.43716E-04
-1.48498E-03
-1.64636E-03
-1.24378E-03
-6.42206E-04
 0.00000E+00
 0.00000E+00
 2.89221E-03
 5.51200E-03
 7.25497E-03
 7.84187E-03
 4.89283E-03
 7.94184E-04
-3.53999E-03
-7.13113E-03
-7.45396E-03
-6.79114E-03
-5.30261E-03
-3.58819E-03
-1.79053E-03
 0.00000E+00
 0.00000E+00
 4.63078E-03
 8.90419E-03
 1.27314E-02
 1.29996E-02
 9.77253E-03
 9.81428E-05
-9.79710E-03
-1.37232E-02
-1.44673E-02
-1.18366E-02
-8.96508E-03
-5.82877E-03
-2.89071E-03
 0.00000E+00
 0.00000E+00
 5.33904E-03
 1.04765E-02
 1.35710E-02
 1.44841E-02
 8.90054E-03
-2.81021E-04
-9.77807E-03
-1.61209E-02
-1.62775E-02
-1.45961E-02
-1.09516E-02
-7.34690E-03
-3.60643E-03
 0.00000E+00
 0.00000E+00
 5.20601E-03
 9.44553E-03
 1.25301E-02
 1.15342E-02
 7.53298E-03
-6.70402E-04
-8.69231E-03
-1.35274E-02
-1.57920E-02
-1.40303E-02
-1.13772E-02
-7.62013E-03
-3.86757E-03
 0.00000E+00
 0.00000E+00
 4.15853E-03
 7.77793E-03
 9.26189E-03
 8.83987E-03
 4.57492E-03
-1.23069E-03
-6.58732E-03
-1.06247E-02
-1.25025E-02
-1.24756E-02
-1.00759E-02
-7.12673E-03
-3.58802E-03
 0.00000E+00
 0.00000E+00
 3.08807E-03
 5.32864E-03
 6.51159E-03
 5.27413E-03
 2.39129E-03
-1.48098E-03
-5.29192E-03
-8.07002E-03
-9.61897E-03
-9.65460E-03
-8.39996E-03
-5.90139E-03
-3.08112E-03
 0.00000E+00
 0.00000E+00
 1.90567E-03
 3.38619E-03
 3.68691E-03
 2.86401E-03
 8.18945E-04
-1.66391E-03
-4.23221E-03
-6.25410E-03
-7.24290E-03
-7.43745E-03
-6.34662E-03
-4.62467E-03
-2.38463E-03
 0.00000E+00
 0.00000E+00
 1.03986E-03
 1.68681E-03
 1.77613E-03
 1.05071E-03
-2.69171E-04
-1.86660E-03
-3.48022E-03
-4.75987E-03
-5.52306E-03
-5.38862E-03
-4.63138E-03
-3.32943E-03
-1.74751E-03
 0.00000E+00
 0.00000E+00
 3.78261E-04
 5.58004E-04
 3.90646E-04
-1.59009E-04
-9.90994E-04
-2.02544E-03
-2.92522E-03
-3.67065E-03
-3.95337E-03
-3.76401E-03
-3.17947E-03
-2.27964E-03
-1.19426E-03
 0.00000E+00
 0.00000E+00
-2.77921E-05
-1.57705E-04
-4.73516E-04
-8.83749E-04
-1.44665E-03
-1.98923E-03
-2.50718E-03
-2.77846E-03
-2.78438E-03
-2.57882E-03
-2.09879E-03
-1.51883E-03
-7.86785E-04
 0.00000E+00
 0.00000E+00
-2.54875E-04
-5.62996E-04
-9.02749E-04
-1.30425E-03
-1.62823E-03
-1.92476E-03
-2.12255E-03
-2.16360E-03
-2.07610E-03
-1.79310E-03
-1.47874E-03
-1.02614E-03
-5.42014E-04
 0.00000E+00
 0.00000E+00
-3.89916E-04
-7.77897E-04
-1.17410E-03
-1.50787E-03
-1.78350E-03
-1.94345E-03
-1.98502E-03
-1.93851E-03
-1.74080E-03
-1.52034E-03
-1.17833E-03
-8.40520E-04
-4.23233E-04
 0.00000E+00
 0.00000E+00
-4.92152E-04
-9.74668E-04
-1.41502E-03
-1.79124E-03
-2.06044E-03
-2.19456E-03
-2.22185E-03
-2.09024E-03
-1.91531E-03
-1.60148E-03
-1.28980E-03
-8.75106E-04
-4.58716E-04
 0.00000E+00
 0.00000E+00
-6.26565E-04
-1.24082E-03
-1.80703E-03
-2.29870E-03
-2.64581E-03
-2.86038E-03
-2.87460E-03
-2.78366E-03
-2.50893E-03
-2.18453E-03
-1.71546E-03
-1.21288E-03
-6.15759E-04
 0.00000E+00
 0.00000E+00
 1.31783E-03
 2.32241E-03
 2.83223E-03
 2.23498E-03
 1.80500E-03
 1.88270E-03
 1.68384E-03
 4.97641E-04
-1.08479E-03
-1.61792E-03
-1.58799E-03
-1.14351E-03
-5.99254E-04
 0.00000E+00
 0.00000E+00
 2.17711E-03
 4.05908E-03
 5.34341E-03
 5.27867E-03
 3.87189E-03
 8.76550E-04
-2.32720E-03
-4.32922E-03
-5.24953E-03
-4.92354E-03
-4.04543E-03
-2.79942E-03
-1.43378E-03
 0.00000E+00
 0.00000E+00
 3.18004E-03
 6.12894E-03
 7.89411E-03
 8.30099E-03
 5.26365E-03
 2.91628E-04
-4.90392E-03
-8.52300E-03
-8.98654E-03
-8.34245E-03
-6.50247E-03
-4.47615E-03
-2.23729E-03
 0.00000E+00
 0.00000E+00
 3.79934E-03
 6.92022E-03
 9.18803E-03
 8.50533E-03
 5.63855E-03
-1.23185E-04
-5.83415E-03
-9.24482E-03
-1.07314E-02
-9.86501E-03
-8.16797E-03
-5.54366E-03
-2.83631E-03
 0.00000E+00
 0.00000E+00
 3.60641E-03
 6.77508E-03
 8.02770E-03
 7.40917E-03
 4.06350E-03
-5.50160E-04
-4.84310E-03
-8.02487E-03
-9.65973E-03
-9.79508E-03
-8.25837E-03
-5.95689E-03
-3.01062E-03
 0.00000E+00
 0.00000E+00
 3.09909E-03
 5.33752E-03
 6.44046E-03
 5.13260E-03
 2.37386E-03
-1.12547E-03
-4.24289E-03
-6.65425E-03
-8.10706E-03
-8.43309E-03
-7.69350E-03
-5.50123E-03
-2.90068E-03
 0.00000E+00
 0.00000E+00
 2.19387E-03
 3.93063E-03
 4.22709E-03
 3.15949E-03
 1.06399E-03
-1.40021E-03
-3.82281E-03
-5.70176E-03
-6.71829E-03
-7.06213E-03
-6.37578E-03
-4.77705E-03
-2.47304E-03
 0.00000E+00
 0.00000E+00
 1.40766E-03
 2.31852E-03
 2.52797E-03
 1.58198E-03
 1.67658E-04
-1.56868E-03
-3.37368E-03
-4.80780E-03
-5.64562E-03
-5.72121E-03
-5.18034E-03
-3.76399E-03
-1.98829E-03
 0.00000E+00
 0.00000E+00
 6.81709E-04
 1.12342E-03
 1.06334E-03
 4.47589E-04
-5.65425E-04
-1.73773E-03
-2.97347E-03
-4.01042E-03
-4.57529E-03
-4.56645E-03
-3.91202E-03
-2.82335E-03
-1.47088E-03
 0.00000E+00
 0.00000E+00
 1.78396E-04
 2.16901E-04
-8.91655E-06
-4.49329E-04
-1.08217E-03
-1.91290E-03
-2.69586E-03
-3.28622E-03
-3.56116E-03
-3.29712E-03
-2.79003E-03
-1.99739E-03
-1.03098E-03
 0.00000E+00
 0.00000E+00
-1.34148E-04
-3.61937E-04
-6.34055E-04
-1.07230E-03
-1.46811E-03
-1.94654E-03
-2.38904E-03
-2.69044E-03
-2.61408E-03
-2.38545E-03
-1.97096E-03
-1.35423E-03
-7.11615E-04
 0.00000E+00
 0.00000E+00
-3.06140E-04
-6.25777E-04
-1.00844E-03
-1.33005E-03
-1.68775E-03
-1.89782E-03
-2.08201E-03
-2.13737E-03
-1.99307E-03
-1.77560E-03
-1.38088E-03
-9.88598E-04
-5.00793E-04
 0.00000E+00
 0.00000E+00
-3.85821E-04
-7.81389E-04
-1.14626E-03
-1.49509E-03
-1.74012E-03
-1.89916E-03
-1.95011E-03
-1.86389E-03
-1.73515E-03
-1.46291E-03
-1.18994E-03
-8.10802E-04
-4.26639E-04
 0.00000E+00
 0.00000E+00
-4.56078E-04
-8.98363E-04
-1.31637E-03
-1.66792E-03
-1.93171E-03
-2.08400E-03
-2.09834E-03
-2.03783E-03
-1.83185E-03
-1.60708E-03
-1.25644E-03
-8.94281E-04
-4.51308E-04
 0.00000E+00
 0.00000E+00
-5.58047E-04
-1.10027E-03
-1.61857E-03
-2.05485E-03
-2.40339E-03
-2.59322E-03
-2.67344E-03
-2.57915E-03
-2.40552E-03
-2.07670E-03
-1.68877E-03
-1.17492E-03
-6.13786E-04
 0.00000E+00
 0.00000E+00
 1.14956E-03
 2.18090E-03
 2.78399E-03
 2.94571E-03
 2.49439E-03
 1.76001E-03
 7.78308E-04
-3.27777E-04
-1.06685E-03
-1.41641E-03
-1.28603E-03
-9.66459E-04
-4.99173E-04
 0.00000E+00
 0.00000E+00
 1.56534E-03
 2.90719E-03
 3.68239E-03
 3.70907E-03
 2.63488E-03
 8.51112E-04
-1.10595E-03
-2.67774E-03
-3.36356E-03
-3.41811E-03
-2.89073E-03
-2.08006E-03
-1.07110E-03
 0.00000E+00
 0.00000E+00
 2.14861E-03
 3.88505E-03
 5.03199E-03
 4.70661E-03
 3.21113E-03
 2.90229E-04
-2.62379E-03
-4.59846E-03
-5.70408E-03
-5.41438E-03
-4.59480E-03
-3.21141E-03
-1.66916E-03
 0.00000E+00
 0.00000E+00
 2.44012E-03
 4.54818E-03
 5.40099E-03
 5.04790E-03
 2.87027E-03
-1.07399E-04
-2.95164E-03
-5.10243E-03
-6.34825E-03
-6.63136E-03
-5.60713E-03
-4.08696E-03
-2.08676E-03
 0.00000E+00
 0.00000E+00
 2.46789E-03
 4.23259E-03
 5.07461E-03
 3.93338E-03
 1.92818E-03
-5.75257E-04
-3.04189E-03
-4.96853E-03
-6.07394E-03
-6.44943E-03
-5.99159E-03
-4.33792E-03
-2.31054E-03
 0.00000E+00
 0.00000E+00
 2.03212E-03
 3.64632E-03
 3.74061E-03
 2.72484E-03
 1.07562E-03
-1.10902E-03
-3.14961E-03
-4.77379E-03
-5.68978E-03
-5.96083E-03
-5.57318E-03
-4.28042E-03
-2.22306E-03
 0.00000E+00
 0.00000E+00
 1.54539E-03
 2.46496E-03
 2.52142E-03
 1.67605E-03
 3.73720E-04
-1.35061E-03
-3.10826E-03
-4.40954E-03
-5.19397E-03
-5.31452E-03
-4.93984E-03
-3.72522E-03
-2.01744E-03
 0.00000E+00
 0.00000E+00
 9.07949E-04
 1.52700E-03
 1.41545E-03
 8.27757E-04
-1.93041E-04
-1.49508E-03
-2.86863E-03
-4.02836E-03
-4.58134E-03
-4.68167E-03
-4.17915E-03
-3.17351E-03
-1.65142E-03
 0.00000E+00
 0.00000E+00
 4.03490E-04
 6.42729E-04
 5.76232E-04
 9.36370E-05
-6.09646E-04
-1.62717E-03
-2.66614E-03
-3.47671E-03
-3.99749E-03
-3.92910E-03
-3.54455E-03
-2.50498E-03
-1.28230E-03
 0.00000E+00
 0.00000E+00
 3.71349E-05
-2.63104E-05
-1.35306E-04
-4.37935E-04
-1.01527E-03
-1.72259E-03
-2.44256E-03
-3.03196E-03
-3.28797E-03
-3.31608E-03
-2.77269E-03
-1.85524E-03
-9.54326E-04
 0.00000E+00
 0.00000E+00
-1.97470E-04
-4.04799E-04
-6.74426E-04
-9.62944E-04
-1.33021E-03
-1.81866E-03
-2.28495E-03
-2.60759E-03
-2.79207E-03
-2.60435E-03
-2.07073E-03
-1.38509E-03
-6.87337E-04
 0.00000E+00
 0.00000E+00
-3.00067E-04
-6.22508E-04
-9.30082E-04
-1.27911E-03
-1.57744E-03
-1.87720E-03
-2.09252E-03
-2.23850E-03
-2.19946E-03
-1.92629E-03
-1.52198E-03
-1.02683E-03
-5.30367E-04
 0.00000E+00
 0.00000E+00
-3.54004E-04
-6.99884E-04
-1.05078E-03
-1.36500E-03
-1.65663E-03
-1.83607E-03
-1.93602E-03
-1.94620E-03
-1.78300E-03
-1.60204E-03
-1.26531E-03
-8.96418E-04
-4.52663E-04
 0.00000E+00
 0.00000E+00
-3.80325E-04
-7.60590E-04
-1.12366E-03
-1.46098E-03
-1.73512E-03
-1.92408E-03
-2.03222E-03
-2.00249E-03
-1.90688E-03
-1.65739E-03
-1.36436E-03
-9.46459E-04
-4.97020E-04
 0.00000E+00
 0.00000E+00
-4.26474E-04
-8.59672E-04
-1.27722E-03
-1.68015E-03
-2.01175E-03
-2.28536E-03
-2.43651E-03
-2.49609E-03
-2.37482E-03
-2.14524E-03
-1.74392E-03
-1.25027E-03
-6.44361E-04
 0.00000E+00
 0.00000E+00
 9.37016E-04
 1.73056E-03
 2.30714E-03
 2.43574E-03
 2.14782E-03
 1.46876E-03
 6.23088E-04
-1.46093E-04
-7.25595E-04
-9.37980E-04
-9.12966E-04
-6.62621E-04
-3.54538E-04
 0.00000E+00
 0.00000E+00
 1.07474E-03
 1.94351E-03
 2.46005E-03
 2.38415E-03
 1.75043E-03
 6.49636E-04
-5.39393E-04
-1.47362E-03
-2.08106E-03
-2.19311E-03
-1.95379E-03
-1.41806E-03
-7.45726E-04
 0.00000E+00
 0.00000E+00
 1.32572E-03
 2.43417E-03
 2.90086E-03
 2.73511E-03
 1.60452E-03
 8.16407E-05
-1.39356E-03
-2.56563E-03
-3.30727E-03
-3.52252E-03
-3.03947E-03
-2.24484E-03
-1.16027E-03
 0.00000E+00
 0.00000E+00
 1.53819E-03
 2.63882E-03
 3.17784E-03
 2.53435E-03
 1.18090E-03
-3.90501E-04
-1.85122E-03
-3.04526E-03
-3.85328E-03
-4.18600E-03
-3.87432E-03
-2.82690E-03
-1.51394E-03
 0.00000E+00
 0.00000E+00
 1.46678E-03
 2.61690E-03
 2.69409E-03
 1.90659E-03
 6.73138E-04
-8.14252E-04
-2.26981E-03
-3.45021E-03
-4.12998E-03
-4.37948E-03
-4.08586E-03
-3.19274E-03
-1.67032E-03
 0.00000E+00
 0.00000E+00
 1.30117E-03
 2.03686E-03
 2.03540E-03
 1.29932E-03
 2.42077E-04
-1.13212E-03
-2.53203E-03
-3.58804E-03
-4.26445E-03
-4.34383E-03
-4.08317E-03
-3.14825E-03
-1.72982E-03
 0.00000E+00
 0.00000E+00
 8.98934E-04
 1.50504E-03
 1.31831E-03
 7.83286E-04
-1.58901E-04
-1.34137E-03
-2.55872E-03
-3.57460E-03
-4.08521E-03
-4.20881E-03
-3.80723E-03
-3.08335E-03
-1.60058E-03
 0.00000E+00
 0.00000E+00
 5.59832E-04
 8.41103E-04
 7.38536E-04
 2.66062E-04
-4.71397E-04
-1.48669E-03
-2.52123E-03
-3.33226E-03
-3.85014E-03
-3.86827E-03
-3.57774E-03
-2.75623E-03
-1.43920E-03
 0.00000E+00
 0.00000E+00
 2.07460E-04
 2.93962E-04
 1.59254E-04
-1.49621E-04
-7.97222E-04
-1.58178E-03
-2.39905E-03
-3.08757E-03
-3.44900E-03
-3.53631E-03
-3.13985E-03
-2.39700E-03
-1.19790E-03
 0.00000E+00
 0.00000E+00
-5.68888E-05
-1.34094E-04
-2.75253E-04
-5.93458E-04
-1.03442E-03
-1.66830E-03
-2.28774E-03
-2.78301E-03
-3.11816E-03
-3.09407E-03
-2.76000E-03
-1.87281E-03
-9.34010E-04
 0.00000E+00
 0.00000E+00
-1.99356E-04
-4.30341E-04
-6.41340E-04
-9.06031E-04
-1.32818E-03
-1.74351E-03
-2.17981E-03
-2.54756E-03
-2.71158E-03
-2.71484E-03
-2.12700E-03
-1.42892E-03
-7.29337E-04
 0.00000E+00
 0.00000E+00
-2.74961E-04
-5.48131E-04
-8.46166E-04
-1.14860E-03
-1.49470E-03
-1.81905E-03
-2.09935E-03
-2.26804E-03
-2.34465E-03
-2.08243E-03
-1.64802E-03
-1.14974E-03
-5.81746E-04
 0.00000E+00
 0.00000E+00