# vtk DataFile Version 2.0
Output of NLACE
ASCII
DATASET UNSTRUCTURED_GRID
POINTS         3120 FLOAT
 1.972100E-01 -9.337178E+00 -1.349336E+01
 1.773206E+00 -9.340790E+00 -1.349290E+01
 3.349202E+00 -9.344402E+00 -1.349243E+01
 4.925198E+00 -9.348014E+00 -1.349197E+01
 6.501194E+00 -9.351626E+00 -1.349151E+01
 8.077190E+00 -9.355238E+00 -1.349104E+01
 9.653186E+00 -9.358850E+00 -1.349058E+01
 1.122918E+01 -9.362462E+00 -1.349011E+01
 1.280518E+01 -9.366074E+00 -1.348965E+01
 1.438117E+01 -9.369686E+00 -1.348919E+01
 1.595717E+01 -9.373298E+00 -1.348872E+01
 1.753317E+01 -9.376910E+00 -1.348826E+01
 1.910916E+01 -9.380522E+00 -1.348779E+01
 2.068516E+01 -9.384134E+00 -1.348733E+01
 2.226115E+01 -9.387746E+00 -1.348687E+01
 2.383715E+01 -9.391358E+00 -1.348640E+01
 1.936540E-01 -1.091852E+01 -1.373697E+01
 1.769650E+00 -1.092213E+01 -1.373650E+01
 3.345646E+00 -1.092575E+01 -1.373604E+01
 4.921642E+00 -1.092936E+01 -1.373558E+01
 6.497638E+00 -1.093297E+01 -1.373511E+01
 8.073634E+00 -1.093658E+01 -1.373465E+01
 9.649630E+00 -1.094019E+01 -1.373418E+01
 1.122563E+01 -1.094381E+01 -1.373372E+01
 1.280162E+01 -1.094742E+01 -1.373325E+01
 1.437762E+01 -1.095103E+01 -1.373279E+01
 1.595361E+01 -1.095464E+01 -1.373233E+01
 1.752961E+01 -1.095825E+01 -1.373186E+01
 1.910561E+01 -1.096187E+01 -1.373140E+01
 2.068160E+01 -1.096548E+01 -1.373094E+01
 2.225760E+01 -1.096909E+01 -1.373047E+01
 2.383359E+01 -1.097270E+01 -1.373001E+01
 1.900980E-01 -1.249987E+01 -1.398057E+01
 1.766094E+00 -1.250348E+01 -1.398011E+01
 3.342090E+00 -1.250709E+01 -1.397964E+01
 4.918086E+00 -1.251070E+01 -1.397918E+01
 6.494082E+00 -1.251431E+01 -1.397871E+01
 8.070078E+00 -1.251793E+01 -1.397825E+01
 9.646074E+00 -1.252154E+01 -1.397779E+01
 1.122207E+01 -1.252515E+01 -1.397732E+01
 1.279807E+01 -1.252876E+01 -1.397686E+01
 1.437406E+01 -1.253237E+01 -1.397640E+01
 1.595006E+01 -1.253599E+01 -1.397593E+01
 1.752605E+01 -1.253960E+01 -1.397547E+01
 1.910205E+01 -1.254321E+01 -1.397500E+01
 2.067805E+01 -1.254682E+01 -1.397454E+01
 2.225404E+01 -1.255043E+01 -1.397407E+01
 2.383004E+01 -1.255405E+01 -1.397361E+01
 1.865420E-01 -1.408121E+01 -1.422417E+01
 1.762538E+00 -1.408482E+01 -1.422371E+01
 3.338534E+00 -1.408843E+01 -1.422325E+01
 4.914530E+00 -1.409205E+01 -1.422278E+01
 6.490526E+00 -1.409566E+01 -1.422232E+01
 8.066522E+00 -1.409927E+01 -1.422185E+01
 9.642518E+00 -1.410288E+01 -1.422139E+01
 1.121851E+01 -1.410649E+01 -1.422093E+01
 1.279451E+01 -1.411011E+01 -1.422046E+01
 1.437051E+01 -1.411372E+01 -1.422000E+01
 1.594650E+01 -1.411733E+01 -1.421953E+01
 1.752250E+01 -1.412094E+01 -1.421907E+01
 1.909849E+01 -1.412455E+01 -1.421861E+01
 2.067449E+01 -1.412817E+01 -1.421814E+01
 2.225049E+01 -1.413178E+01 -1.421768E+01
 2.382648E+01 -1.413539E+01 -1.421721E+01
 1.829860E-01 -1.566255E+01 -1.446778E+01
 1.758982E+00 -1.566617E+01 -1.446731E+01
 3.334978E+00 -1.566978E+01 -1.446685E+01
 4.910974E+00 -1.567339E+01 -1.446639E+01
 6.486970E+00 -1.567700E+01 -1.446592E+01
 8.062966E+00 -1.568061E+01 -1.446546E+01
 9.638962E+00 -1.568423E+01 -1.446499E+01
 1.121496E+01 -1.568784E+01 -1.446453E+01
 1.279095E+01 -1.569145E+01 -1.446407E+01
 1.436695E+01 -1.569506E+01 -1.446360E+01
 1.594295E+01 -1.569867E+01 -1.446314E+01
 1.751894E+01 -1.570229E+01 -1.446268E+01
 1.909494E+01 -1.570590E+01 -1.446221E+01
 2.067093E+01 -1.570951E+01 -1.446175E+01
 2.224693E+01 -1.571312E+01 -1.446128E+01
 2.382293E+01 -1.571673E+01 -1.446082E+01
 1.794300E-01 -1.724390E+01 -1.471138E+01
 1.755426E+00 -1.724751E+01 -1.471092E+01
 3.331422E+00 -1.725112E+01 -1.471045E+01
 4.907418E+00 -1.725473E+01 -1.470999E+01
 6.483414E+00 -1.725835E+01 -1.470953E+01
 8.059410E+00 -1.726196E+01 -1.470906E+01
 9.635406E+00 -1.726557E+01 -1.470860E+01
 1.121140E+01 -1.726918E+01 -1.470814E+01
 1.278740E+01 -1.727279E+01 -1.470767E+01
 1.436339E+01 -1.727641E+01 -1.470721E+01
 1.593939E+01 -1.728002E+01 -1.470674E+01
 1.751539E+01 -1.728363E+01 -1.470628E+01
 1.909138E+01 -1.728724E+01 -1.470581E+01
 2.066738E+01 -1.729085E+01 -1.470535E+01
 2.224337E+01 -1.729447E+01 -1.470489E+01
 2.381937E+01 -1.729808E+01 -1.470442E+01
 1.758740E-01 -1.882524E+01 -1.495499E+01
 1.751870E+00 -1.882885E+01 -1.495452E+01
 3.327866E+00 -1.883247E+01 -1.495406E+01
 4.903862E+00 -1.883608E+01 -1.495359E+01
 6.479858E+00 -1.883969E+01 -1.495313E+01
 8.055854E+00 -1.884330E+01 -1.495267E+01
 9.631850E+00 -1.884691E+01 -1.495220E+01
 1.120785E+01 -1.885053E+01 -1.495174E+01
 1.278384E+01 -1.885414E+01 -1.495127E+01
 1.435984E+01 -1.885775E+01 -1.495081E+01
 1.593583E+01 -1.886136E+01 -1.495035E+01
 1.751183E+01 -1.886497E+01 -1.494988E+01
 1.908783E+01 -1.886859E+01 -1.494942E+01
 2.066382E+01 -1.887220E+01 -1.494895E+01
 2.223982E+01 -1.887581E+01 -1.494849E+01
 2.381581E+01 -1.887942E+01 -1.494803E+01
 1.723180E-01 -2.040659E+01 -1.519859E+01
 1.748314E+00 -2.041020E+01 -1.519813E+01
 3.324310E+00 -2.041381E+01 -1.519766E+01
 4.900306E+00 -2.041742E+01 -1.519720E+01
 6.476302E+00 -2.042103E+01 -1.519673E+01
 8.052298E+00 -2.042465E+01 -1.519627E+01
 9.628294E+00 -2.042826E+01 -1.519581E+01
 1.120429E+01 -2.043187E+01 -1.519534E+01
 1.278029E+01 -2.043548E+01 -1.519488E+01
 1.435628E+01 -2.043909E+01 -1.519441E+01
 1.593228E+01 -2.044271E+01 -1.519395E+01
 1.750827E+01 -2.044632E+01 -1.519349E+01
 1.908427E+01 -2.044993E+01 -1.519302E+01
 2.066027E+01 -2.045354E+01 -1.519256E+01
 2.223626E+01 -2.045715E+01 -1.519209E+01
 2.381226E+01 -2.046077E+01 -1.519163E+01
 1.687620E-01 -2.198793E+01 -1.544219E+01
 1.744758E+00 -2.199154E+01 -1.544173E+01
 3.320754E+00 -2.199515E+01 -1.544127E+01
 4.896750E+00 -2.199877E+01 -1.544080E+01
 6.472746E+00 -2.200238E+01 -1.544034E+01
 8.048742E+00 -2.200599E+01 -1.543988E+01
 9.624738E+00 -2.200960E+01 -1.543941E+01
 1.120073E+01 -2.201321E+01 -1.543895E+01
 1.277673E+01 -2.201683E+01 -1.543848E+01
 1.435273E+01 -2.202044E+01 -1.543802E+01
 1.592872E+01 -2.202405E+01 -1.543755E+01
 1.750472E+01 -2.202766E+01 -1.543709E+01
 1.908071E+01 -2.203127E+01 -1.543663E+01
 2.065671E+01 -2.203489E+01 -1.543616E+01
 2.223271E+01 -2.203850E+01 -1.543570E+01
 2.380870E+01 -2.204211E+01 -1.543523E+01
 1.652060E-01 -2.356927E+01 -1.568580E+01
 1.741202E+00 -2.357289E+01 -1.568534E+01
 3.317198E+00 -2.357650E+01 -1.568487E+01
 4.893194E+00 -2.358011E+01 -1.568441E+01
 6.469190E+00 -2.358372E+01 -1.568394E+01
 8.045186E+00 -2.358733E+01 -1.568348E+01
 9.621182E+00 -2.359095E+01 -1.568301E+01
 1.119718E+01 -2.359456E+01 -1.568255E+01
 1.277317E+01 -2.359817E+01 -1.568209E+01
 1.434917E+01 -2.360178E+01 -1.568162E+01
 1.592517E+01 -2.360539E+01 -1.568116E+01
 1.750116E+01 -2.360901E+01 -1.568070E+01
 1.907716E+01 -2.361262E+01 -1.568023E+01
 2.065315E+01 -2.361623E+01 -1.567977E+01
 2.222915E+01 -2.361984E+01 -1.567930E+01
 2.380515E+01 -2.362345E+01 -1.567884E+01
 1.616500E-01 -2.515062E+01 -1.592940E+01
 1.737646E+00 -2.515423E+01 -1.592894E+01
 3.313642E+00 -2.515784E+01 -1.592847E+01
 4.889638E+00 -2.516145E+01 -1.592801E+01
 6.465634E+00 -2.516507E+01 -1.592755E+01
 8.041630E+00 -2.516868E+01 -1.592708E+01
 9.617626E+00 -2.517229E+01 -1.592662E+01
 1.119362E+01 -2.517590E+01 -1.592615E+01
 1.276962E+01 -2.517951E+01 -1.592569E+01
 1.434561E+01 -2.518313E+01 -1.592523E+01
 1.592161E+01 -2.518674E+01 -1.592476E+01
 1.749761E+01 -2.519035E+01 -1.592430E+01
 1.907360E+01 -2.519396E+01 -1.592383E+01
 2.064960E+01 -2.519757E+01 -1.592337E+01
 2.222559E+01 -2.520119E+01 -1.592291E+01
 2.380159E+01 -2.520480E+01 -1.592244E+01
 1.580940E-01 -2.673196E+01 -1.617301E+01
 1.734090E+00 -2.673557E+01 -1.617254E+01
 3.310086E+00 -2.673919E+01 -1.617208E+01
 4.886082E+00 -2.674280E+01 -1.617161E+01
 6.462078E+00 -2.674641E+01 -1.617115E+01
 8.038074E+00 -2.675002E+01 -1.617069E+01
 9.614070E+00 -2.675363E+01 -1.617022E+01
 1.119007E+01 -2.675725E+01 -1.616976E+01
 1.276606E+01 -2.676086E+01 -1.616929E+01
 1.434206E+01 -2.676447E+01 -1.616883E+01
 1.591805E+01 -2.676808E+01 -1.616837E+01
 1.749405E+01 -2.677169E+01 -1.616790E+01
 1.907005E+01 -2.677531E+01 -1.616744E+01
 2.064604E+01 -2.677892E+01 -1.616698E+01
 2.222204E+01 -2.678253E+01 -1.616651E+01
 2.379803E+01 -2.678614E+01 -1.616605E+01
 1.545380E-01 -2.831331E+01 -1.641661E+01
 1.730534E+00 -2.831692E+01 -1.641615E+01
 3.306530E+00 -2.832053E+01 -1.641568E+01
 4.882526E+00 -2.832414E+01 -1.641522E+01
 6.458522E+00 -2.832775E+01 -1.641475E+01
 8.034518E+00 -2.833137E+01 -1.641429E+01
 9.610514E+00 -2.833498E+01 -1.641383E+01
 1.118651E+01 -2.833859E+01 -1.641336E+01
 1.276251E+01 -2.834220E+01 -1.641290E+01
 1.433850E+01 -2.834581E+01 -1.641243E+01
 1.591450E+01 -2.834943E+01 -1.641197E+01
 1.749049E+01 -2.835304E+01 -1.641151E+01
 1.906649E+01 -2.835665E+01 -1.641104E+01
 2.064249E+01 -2.836026E+01 -1.641058E+01
 2.221848E+01 -2.836387E+01 -1.641011E+01
 2.379448E+01 -2.836749E+01 -1.640965E+01
 2.232970E-01 -9.597983E+00 -1.170574E+01
 1.799293E+00 -9.601119E+00 -1.170521E+01
 3.375289E+00 -9.604255E+00 -1.170468E+01
 4.951285E+00 -9.607391E+00 -1.170414E+01
 6.527281E+00 -9.610527E+00 -1.170361E+01
 8.103277E+00 -9.613663E+00 -1.170308E+01
 9.679273E+00 -9.616799E+00 -1.170255E+01
 1.125527E+01 -9.619935E+00 -1.170202E+01
 1.283127E+01 -9.623071E+00 -1.170148E+01
 1.440726E+01 -9.626207E+00 -1.170095E+01
 1.598326E+01 -9.629343E+00 -1.170042E+01
 1.755925E+01 -9.632479E+00 -1.169989E+01
 1.913525E+01 -9.635615E+00 -1.169936E+01
 2.071124E+01 -9.638751E+00 -1.169882E+01
 2.228724E+01 -9.641887E+00 -1.169829E+01
 2.386324E+01 -9.645023E+00 -1.169776E+01
 2.202130E-01 -1.118396E+01 -1.191705E+01
 1.796209E+00 -1.118710E+01 -1.191652E+01
 3.372205E+00 -1.119023E+01 -1.191599E+01
 4.948201E+00 -1.119337E+01 -1.191546E+01
 6.524197E+00 -1.119651E+01 -1.191492E+01
 8.100193E+00 -1.119964E+01 -1.191439E+01
 9.676189E+00 -1.120278E+01 -1.191386E+01
 1.125219E+01 -1.120591E+01 -1.191333E+01
 1.282818E+01 -1.120905E+01 -1.191280E+01
 1.440418E+01 -1.121219E+01 -1.191226E+01
 1.598017E+01 -1.121532E+01 -1.191173E+01
[...]
POINT_DATA         3120
 SCALARS predictedDisp11 float  1                  
LOOKUP_TABLE default
-1.43385E-01
-1.41110E-01
-1.40555E-01
-1.39065E-01
-1.38792E-01
-1.37471E-01
-1.36609E-01
-1.34494E-01
-1.32492E-01
-1.29527E-01
-1.26791E-01
-1.24948E-01
-1.26338E-01
-1.31007E-01
-1.35385E-01
-1.36128E-01
-1.49599E-01
-1.48015E-01
-1.46317E-01
-1.45737E-01
-1.44607E-01
-1.44019E-01
-1.42353E-01
-1.40740E-01
-1.38149E-01
-1.35397E-01
-1.32355E-01
-1.30628E-01
-1.32046E-01
-1.36750E-01
-1.40912E-01
-1.42556E-01
-1.58709E-01
-1.56240E-01
-1.55152E-01
-1.53845E-01
-1.53390E-01
-1.52127E-01
-1.51118E-01
-1.49215E-01
-1.47286E-01
-1.44717E-01
-1.42500E-01
-1.41233E-01
-1.42339E-01
-1.45644E-01
-1.48655E-01
-1.48488E-01
-1.68521E-01
-1.66922E-01
-1.65161E-01
-1.64527E-01
-1.63446E-01
-1.62858E-01
-1.61552E-01
-1.60395E-01
-1.58633E-01
-1.56991E-01
-1.55336E-01
-1.54661E-01
-1.55354E-01
-1.57299E-01
-1.58710E-01
-1.57801E-01
-1.80493E-01
-1.78374E-01
-1.77330E-01
-1.76145E-01
-1.75662E-01
-1.74738E-01
-1.74090E-01
-1.72984E-01
-1.71980E-01
-1.70741E-01
-1.69832E-01
-1.69384E-01
-1.69761E-01
-1.70713E-01
-1.71101E-01
-1.69835E-01
-1.93120E-01
-1.91601E-01
-1.90082E-01
-1.89405E-01
-1.88553E-01
-1.88170E-01
-1.87494E-01
-1.86908E-01
-1.86141E-01
-1.85463E-01
-1.84907E-01
-1.84593E-01
-1.84788E-01
-1.85024E-01
-1.85013E-01
-1.83326E-01
-2.06860E-01
-2.04978E-01
-2.03910E-01
-2.02931E-01
-2.02216E-01
-2.01934E-01
-2.01706E-01
-2.01163E-01
-2.00717E-01
-2.00322E-01
-1.99980E-01
-1.99808E-01
-1.99633E-01
-1.99801E-01
-1.99207E-01
-1.97904E-01
-2.20194E-01
-2.18709E-01
-2.17453E-01
-2.16691E-01
-2.16008E-01
-2.15697E-01
-2.15611E-01
-2.15267E-01
-2.15072E-01
-2.14688E-01
-2.14614E-01
-2.14178E-01
-2.14219E-01
-2.13783E-01
-2.13561E-01
-2.11854E-01
-2.32914E-01
-2.31609E-01
-2.30598E-01
-2.29863E-01
-2.29444E-01
-2.29020E-01
-2.28619E-01
-2.28702E-01
-2.28316E-01
-2.28328E-01
-2.27776E-01
-2.27807E-01
-2.27235E-01
-2.27217E-01
-2.26257E-01
-2.25283E-01
-2.45191E-01
-2.43677E-01
-2.42693E-01
-2.41875E-01
-2.41494E-01
-2.40955E-01
-2.40854E-01
-2.40417E-01
-2.40496E-01
-2.39994E-01
-2.39982E-01
-2.39292E-01
-2.39239E-01
-2.38354E-01
-2.38054E-01
-2.36238E-01
-2.55820E-01
-2.54295E-01
-2.53108E-01
-2.52513E-01
-2.51749E-01
-2.51511E-01
-2.50913E-01
-2.50887E-01
-2.50288E-01
-2.50300E-01
-2.49537E-01
-2.49436E-01
-2.48490E-01
-2.48321E-01
-2.47008E-01
-2.46088E-01
-2.64066E-01
-2.62575E-01
-2.61802E-01
-2.60862E-01
-2.60450E-01
-2.59602E-01
-2.59401E-01
-2.58599E-01
-2.58503E-01
-2.57644E-01
-2.57514E-01
-2.56486E-01
-2.56311E-01
-2.55121E-01
-2.54769E-01
-2.52771E-01
-2.69983E-01
-2.68822E-01
-2.67970E-01
-2.67202E-01
-2.66462E-01
-2.65887E-01
-2.65010E-01
-2.64452E-01
-2.63645E-01
-2.63158E-01
-2.62298E-01
-2.61866E-01
-2.60862E-01
-2.60358E-01
-2.59415E-01
-2.58670E-01
-1.12309E-01
-1.10944E-01
-1.09273E-01
-1.08443E-01
-1.07158E-01
-1.07386E-01
-1.07056E-01
-1.07061E-01
-1.06521E-01
-1.06053E-01
-1.05189E-01
-1.04510E-01
-1.05440E-01
-1.07926E-01
-1.09811E-01
-1.11195E-01
-1.18497E-01
-1.16321E-01
-1.15135E-01
-1.13899E-01
-1.13425E-01
-1.12858E-01
-1.12732E-01
-1.12242E-01
-1.11790E-01
-1.10918E-01
-1.10026E-01
-1.09434E-01
-1.09832E-01
-1.12519E-01
-1.15120E-01
-1.15295E-01
-1.26179E-01
-1.24376E-01
-1.22794E-01
-1.22107E-01
-1.21326E-01
-1.21088E-01
-1.20556E-01
-1.20253E-01
-1.19629E-01
-1.19040E-01
-1.18278E-01
-1.17915E-01
-1.18420E-01
-1.19939E-01
-1.21024E-01
-1.20617E-01
-1.35432E-01
-1.33525E-01
-1.32581E-01
-1.31653E-01
-1.31331E-01
-1.30824E-01
-1.30627E-01
-1.30201E-01
-1.29904E-01
-1.29397E-01
-1.29039E-01
-1.28785E-01
-1.29054E-01
-1.29628E-01
-1.29826E-01
-1.28605E-01
-1.46023E-01
-1.44556E-01
-1.43412E-01
-1.42930E-01
-1.42417E-01
-1.42282E-01
-1.42013E-01
-1.41917E-01
-1.41672E-01
-1.41504E-01
-1.41246E-01
-1.41151E-01
-1.41138E-01
-1.41132E-01
-1.40689E-01
-1.39092E-01
-1.57980E-01
-1.56432E-01
-1.55632E-01
-1.54976E-01
-1.54742E-01
-1.54567E-01
-1.54591E-01
-1.54542E-01
-1.54540E-01
-1.54468E-01
-1.54387E-01
-1.54274E-01
-1.54093E-01
-1.53819E-01
-1.52942E-01
-1.51331E-01
-1.70629E-01
-1.69215E-01
-1.68260E-01
-1.67772E-01
-1.67489E-01
-1.67464E-01
-1.67566E-01
-1.67658E-01
-1.67753E-01
-1.67771E-01
-1.67783E-01
-1.67603E-01
-1.67425E-01
-1.66834E-01
-1.66053E-01
-1.64149E-01
-1.83380E-01
-1.81885E-01
-1.81051E-01
-1.80588E-01
-1.80374E-01
-1.80359E-01
-1.80387E-01
-1.80610E-01
-1.80669E-01
-1.80840E-01
-1.80725E-01
-1.80711E-01
-1.80272E-01
-1.79892E-01
-1.78783E-01
-1.77461E-01
-1.95249E-01
-1.93952E-01
-1.93269E-01
-1.92841E-01
-1.92707E-01
-1.92567E-01
-1.92686E-01
-1.92693E-01
-1.92977E-01
-1.92899E-01
-1.93029E-01
-1.92686E-01
-1.92523E-01
-1.91704E-01
-1.91005E-01
-1.89199E-01
-2.06478E-01
-2.05256E-01
-2.04407E-01
-2.04053E-01
-2.03730E-01
-2.03739E-01
-2.03582E-01
-2.03828E-01
-2.03744E-01
-2.03959E-01
-2.03657E-01
-2.03634E-01
-2.02959E-01
-2.02556E-01
-2.01287E-01
-2.00145E-01
-2.16519E-01
-2.15011E-01
-2.14229E-01
-2.13570E-01
-2.13389E-01
-2.13047E-01
-2.13152E-01
-2.12933E-01
-2.13133E-01
-2.12836E-01
-2.12882E-01
-2.12289E-01
-2.12040E-01
-2.11003E-01
-2.10300E-01
-2.08385E-01
-2.24366E-01
-2.22976E-01
-2.21927E-01
-2.21460E-01
-2.20872E-01
-2.20789E-01
-2.20355E-01
-2.20404E-01
-2.19992E-01
-2.20017E-01
-2.19446E-01
-2.19283E-01
-2.18388E-01
-2.17953E-01
-2.16588E-01
-2.15529E-01
-2.29790E-01
-2.28548E-01
-2.27738E-01
-2.26932E-01
-2.26641E-01
-2.26089E-01
-2.25771E-01
-2.25195E-01
-2.24964E-01
-2.24357E-01
-2.24059E-01
-2.23383E-01
-2.22934E-01
-2.21944E-01
-2.21336E-01
-2.19811E-01
-8.21685E-02
-8.01535E-02
-7.84633E-02
-7.57432E-02
-7.29910E-02
-7.53742E-02
-7.76781E-02
-7.87370E-02
-7.98366E-02
-8.02928E-02
-8.05704E-02
-8.02470E-02
-7.83771E-02
-8.22448E-02
-8.52990E-02
-8.27529E-02
-8.69787E-02
-8.52387E-02
-8.33639E-02
-8.19877E-02
-8.06930E-02
-8.16629E-02
-8.25856E-02
-8.36535E-02
-8.42360E-02
-8.47513E-02
-8.45956E-02
-8.39763E-02
-8.43169E-02
-8.59861E-02
-8.70960E-02
-8.71844E-02
-9.42735E-02
-9.20686E-02
-9.09484E-02
-8.98849E-02
-8.96825E-02
-8.96508E-02
-9.02727E-02
-9.07263E-02
-9.13661E-02
-9.15644E-02
-9.16412E-02
-9.14103E-02
-9.12828E-02
-9.21626E-02
-9.27728E-02
-9.15615E-02
-1.02333E-01
-1.00862E-01
-9.97064E-02
-9.93507E-02
-9.89957E-02
-9.92595E-02
-9.94349E-02
-9.99766E-02
-1.00309E-01
-1.00708E-01
-1.00737E-01
-1.00702E-01
-1.00647E-01
-1.00683E-01
-1.00197E-01
-9.89339E-02
-1.12139E-01
-1.10709E-01
-1.10087E-01
-1.09591E-01
-1.09665E-01
-1.09714E-01
-1.10138E-01
-1.10475E-01
-1.10971E-01
-1.11240E-01
-1.11455E-01
-1.11405E-01
-1.11237E-01
-1.10858E-01
-1.10016E-01
-1.08340E-01
-1.23139E-01
-1.21954E-01
-1.21188E-01
-1.21008E-01
-1.20941E-01
-1.21249E-01
-1.21581E-01
-1.22078E-01
-1.22490E-01
-1.22867E-01
-1.23045E-01
-1.23019E-01
-1.22786E-01
-1.22176E-01
-1.21217E-01
-1.19400E-01
-1.35282E-01
-1.33729E-01
-1.33067E-01
-1.32763E-01
-1.32846E-01
-1.33118E-01
-1.33554E-01
-1.34038E-01
-1.34481E-01
-1.34869E-01
-1.35025E-01
-1.35046E-01
-1.34669E-01
-1.34158E-01
-1.32996E-01
-1.31484E-01
-1.46979E-01
-1.45562E-01
-1.44850E-01
-1.44623E-01
-1.44715E-01
-1.44962E-01
-1.45421E-01
-1.45838E-01
-1.46361E-01
-1.46629E-01
-1.46903E-01
-1.46741E-01
-1.46563E-01
-1.45783E-01
-1.44976E-01
-1.43238E-01
-1.57740E-01
-1.56677E-01
-1.56091E-01
-1.55961E-01
-1.55979E-01
-1.56292E-01
-1.56553E-01
-1.57105E-01
-1.57402E-01
-1.57852E-01
-1.57839E-01
-1.57926E-01
-1.57391E-01
-1.56976E-01
-1.55774E-01
-1.54628E-01
-1.67985E-01
-1.66915E-01
-1.66475E-01
-1.66170E-01
-1.66288E-01
-1.66339E-01
-1.66778E-01
-1.66984E-01
-1.67507E-01
-1.67574E-01
-1.67838E-01
-1.67477E-01
-1.67311E-01
-1.66373E-01
-1.65668E-01
-1.63889E-01
-1.77346E-01
-1.76168E-01
-1.75366E-01
-1.75154E-01
-1.74906E-01
-1.75146E-01
-1.75149E-01
-1.75589E-01
-1.75620E-01
-1.75962E-01
-1.75704E-01
-1.75712E-01
-1.74978E-01
-1.74563E-01
-1.73239E-01
-1.72238E-01
-1.84658E-01
-1.83345E-01
-1.82723E-01
-1.82146E-01
-1.82110E-01
-1.81827E-01
-1.82047E-01
-1.81858E-01
-1.82113E-01
-1.81840E-01
-1.81920E-01
-1.81312E-01
-1.81086E-01
-1.80045E-01
-1.79422E-01
-1.77560E-01
-1.89808E-01
-1.88786E-01
-1.87900E-01
-1.87514E-01
-1.87143E-01
-1.86936E-01
-1.86550E-01
-1.86443E-01
-1.85908E-01
-1.85739E-01
-1.85297E-01
-1.84996E-01
-1.84246E-01
-1.83843E-01
-1.82835E-01
-1.81909E-01
-5.27126E-02
-5.07992E-02
-4.73164E-02
-4.08334E-02
-4.40400E-03
-4.10711E-02
-4.74209E-02
-5.05648E-02
-5.21351E-02
-5.39620E-02
-5.52440E-02
-5.70888E-02
-6.02614E-02
-5.63422E-02
-4.74061E-02
-4.65024E-02
-5.64510E-02
-5.43213E-02
-5.24749E-02
-4.96703E-02
-4.62733E-02
-4.97750E-02
-5.26614E-02
-5.45780E-02
-5.63682E-02
-5.75275E-02
-5.86799E-02
-5.91347E-02
-5.91720E-02
-5.75260E-02
-5.48398E-02
-5.18177E-02
-6.21942E-02
-6.06364E-02
-5.91938E-02
-5.83907E-02
-5.76401E-02
-5.86621E-02
-5.97451E-02
-6.11961E-02
-6.23142E-02
-6.35034E-02
-6.40338E-02
-6.43033E-02
-6.38376E-02
-6.27707E-02
-6.07661E-02
-5.82314E-02
-6.97172E-02
-6.82564E-02
-6.75958E-02
-6.70335E-02
-6.72346E-02
-6.75216E-02
-6.84345E-02
-6.92850E-02
-7.03921E-02
-7.11055E-02
-7.17198E-02
-7.16823E-02
-7.13048E-02
-7.02813E-02
-6.87504E-02
-6.63170E-02
-7.89791E-02
-7.76971E-02
-7.68582E-02
-7.67910E-02
-7.68263E-02
-7.74122E-02
-7.80033E-02
-7.89288E-02
-7.96901E-02
-8.04745E-02
-8.08208E-02
-8.09068E-02
-8.04576E-02
-7.95817E-02
-7.81230E-02
-7.59380E-02
-8.93679E-02
-8.77979E-02
-8.72565E-02
-8.70474E-02
-8.73778E-02
-8.78187E-02
-8.85763E-02
-8.93185E-02
-9.01363E-02
-9.07373E-02
-9.11385E-02
-9.11599E-02
-9.07806E-02
-9.00182E-02
-8.86688E-02
-8.67979E-02
-9.95759E-02
-9.84709E-02
-9.79189E-02
-9.79255E-02
-9.81926E-02
-9.87591E-02
-9.94552E-02
-1.00229E-01
-1.00977E-01
-1.01556E-01
-1.01940E-01
-1.01933E-01
-1.01687E-01
-1.00904E-01
-9.99096E-02
-9.81611E-02
-1.10309E-01
-1.09174E-01
-1.08722E-01
-1.08737E-01
-1.09039E-01
-1.09613E-01
-1.10261E-01
-1.11064E-01
-1.11710E-01
-1.12347E-01
-1.12595E-01
-1.12740E-01
-1.12333E-01
-1.11878E-01
-1.10763E-01
-1.09580E-01
-1.20308E-01
-1.19384E-01
-1.19080E-01
-1.19046E-01
-1.19411E-01
-1.19834E-01
-1.20575E-01
-1.21176E-01
-1.21956E-01
-1.22355E-01
-1.22787E-01
-1.22648E-01
-1.22546E-01
-1.21762E-01
-1.21097E-01
-1.19603E-01
-1.29801E-01
-1.28980E-01
-1.28496E-01
-1.28543E-01
-1.28649E-01
-1.29204E-01
-1.29626E-01
-1.30407E-01
-1.30844E-01
-1.31457E-01
-1.31507E-01
-1.31662E-01
-1.31119E-01
-1.30769E-01
-1.29597E-01
-1.28648E-01
-1.38350E-01
-1.37241E-01
-1.36822E-01
-1.36528E-01
-1.36782E-01
-1.36904E-01
-1.37517E-01
-1.37813E-01
-1.38455E-01
-1.38589E-01
-1.38904E-01
-1.38553E-01
-1.38430E-01
-1.37521E-01
-1.36946E-01
-1.35330E-01
-1.44708E-01
-1.43929E-01
-1.43304E-01
-1.43239E-01
-1.43025E-01
-1.43352E-01
-1.43325E-01
-1.43764E-01
-1.43720E-01
-1.44013E-01
-1.43761E-01
-1.43792E-01
-1.43100E-01
-1.42803E-01
-1.41618E-01
-1.40872E-01
-1.49481E-01
-1.48692E-01
-1.48356E-01
-1.48027E-01
-1.48055E-01
-1.47773E-01
-1.47698E-01
-1.47336E-01
-1.47106E-01
-1.46557E-01
-1.46478E-01
-1.46123E-01
-1.45914E-01
-1.45191E-01
-1.44681E-01
-1.43286E-01
-2.38368E-02
-2.15353E-02
-2.01519E-02
-1.79022E-02
-1.55708E-02
-1.82691E-02
-2.06214E-02
-2.20889E-02
-2.42399E-02
-2.59122E-02
-2.81985E-02
-3.05036E-02
-3.45041E-02
-2.44226E-02
-1.30071E-02
-1.07055E-02
-2.62642E-02
-2.46791E-02
-2.30895E-02
-2.20685E-02
-2.11227E-02
-2.23427E-02
-2.39041E-02
-2.58413E-02
-2.74627E-02
-2.94179E-02
-3.08122E-02
-3.24306E-02
-3.14660E-02
-2.71333E-02
-2.11063E-02
-1.58790E-02
-3.09732E-02
-2.94039E-02
-2.86391E-02
-2.79203E-02
-2.80591E-02
-2.85212E-02
-2.98162E-02
-3.11377E-02
-3.28430E-02
-3.40970E-02
-3.54098E-02
-3.55601E-02
-3.49493E-02
-3.18070E-02
-2.77306E-02
-2.30798E-02
-3.76273E-02
-3.63970E-02
-3.55092E-02
-3.54476E-02
-3.54753E-02
-3.62347E-02
-3.70709E-02
-3.84157E-02
-3.95650E-02
-4.08448E-02
-4.14388E-02
-4.17017E-02
-4.06930E-02
-3.88235E-02
-3.59740E-02
-3.23874E-02
-4.62884E-02
-4.45681E-02
-4.40169E-02
-4.37686E-02
-4.42115E-02
-4.47488E-02
-4.57738E-02
-4.67622E-02
-4.79614E-02
-4.87972E-02
-4.94691E-02
-4.94019E-02
-4.88056E-02
-4.73628E-02
-4.52710E-02
-4.25296E-02
-5.50114E-02
-5.37543E-02
-5.30883E-02
-5.31807E-02
-5.35061E-02
-5.42848E-02
-5.51383E-02
-5.62177E-02
-5.71663E-02
-5.80384E-02
-5.84972E-02
-5.85707E-02
-5.80829E-02
-5.70225E-02
-5.55030E-02
-5.32662E-02
-6.39678E-02
-6.30566E-02
-6.27843E-02
-6.28721E-02
-6.33881E-02
-6.41106E-02
-6.50449E-02
-6.60322E-02
-6.69787E-02
-6.77573E-02
-6.82153E-02
-6.83434E-02
-6.79501E-02
-6.72636E-02
-6.59543E-02
-6.43939E-02
-7.35736E-02
-7.27285E-02
-7.24972E-02
-7.26772E-02
-7.32073E-02
-7.39315E-02
-7.48820E-02
-7.58064E-02
-7.67740E-02
-7.74535E-02
-7.79941E-02
-7.80291E-02
-7.79059E-02
-7.71669E-02
-7.63576E-02
-7.47716E-02
-8.28935E-02
-8.21276E-02
-8.18490E-02
-8.20854E-02
-8.25018E-02
-8.33034E-02
-8.40880E-02
-8.51207E-02
-8.58972E-02
-8.67134E-02
-8.70344E-02
-8.73027E-02
-8.69385E-02
-8.66174E-02
-8.55843E-02
-8.46578E-02
-9.14336E-02
-9.06630E-02
-9.04999E-02
-9.05163E-02
-9.10399E-02
-9.15440E-02
-9.24825E-02
-9.32004E-02
-9.41549E-02
-9.46492E-02
-9.51900E-02
-9.50965E-02
-9.50905E-02
-9.43706E-02
-9.38569E-02
-9.24537E-02
-9.88921E-02
-9.82260E-02
-9.78121E-02
-9.79718E-02
-9.80959E-02
-9.87714E-02
-9.92277E-02
-1.00115E-01
-1.00603E-01
-1.01275E-01
-1.01365E-01
-1.01570E-01
-1.01081E-01
-1.00867E-01
-9.98900E-02
-9.92966E-02
-1.04792E-01
-1.04097E-01
-1.03953E-01
-1.03766E-01
-1.04128E-01
-1.04188E-01
-1.04776E-01
-1.04922E-01
-1.05443E-01
-1.05500E-01
-1.05768E-01
-1.05460E-01
-1.05431E-01
-1.04648E-01
-1.04283E-01
-1.03026E-01
-1.09134E-01
-1.08658E-01
-1.08401E-01
-1.08578E-01
-1.08520E-01
-1.08731E-01
-1.08353E-01
-1.08192E-01
-1.07642E-01
-1.07334E-01
-1.07196E-01
-1.07200E-01
-1.06862E-01
-1.06588E-01
-1.05664E-01
-1.04919E-01
 4.90577E-03
 6.68539E-03
 8.10642E-03
 8.21350E-03
 8.77412E-03
 7.96246E-03
 7.38558E-03
 6.18600E-03
 5.12217E-03
 3.31506E-03
 2.16876E-03
 4.62376E-04
 2.19679E-03
 6.70809E-03
 1.31079E-02
 1.90467E-02
 3.04039E-03
 4.94287E-03
 5.77136E-03
 6.53373E-03
 6.45656E-03
 6.10043E-03
 4.95777E-03
 3.73462E-03
 1.96469E-03
 6.14649E-04
-1.01415E-03
-1.14404E-03
-2.90037E-04
 4.09919E-03
 9.42278E-03
 1.50230E-02
-3.85657E-04
 8.75534E-04
 1.90568E-03
 2.07094E-03
 2.16155E-03
 1.43591E-03
 5.63961E-04
-9.44035E-04
-2.25568E-03
-3.85053E-03
-4.57950E-03
-4.97576E-03
-3.38747E-03
-5.25344E-04
 3.73624E-03
 8.76543E-03
-6.28048E-03
-4.68845E-03
-4.14216E-03
-3.77006E-03
-4.17388E-03
-4.67639E-03
-5.81376E-03
-6.92686E-03
-8.38957E-03
-9.37795E-03
-1.02677E-02
-1.00414E-02
-9.12515E-03
-6.76366E-03
-3.63650E-03
 2.73533E-04
-1.33256E-02
-1.19974E-02
-1.11897E-02
-1.12485E-02
-1.14936E-02
-1.23330E-02
-1.32273E-02
-1.44982E-02
-1.55640E-02
-1.66567E-02
-1.71173E-02
-1.71820E-02
-1.62810E-02
-1.46989E-02
-1.23846E-02
-9.35563E-03
-2.09819E-02
-1.97331E-02
-1.93797E-02
-1.93678E-02
-1.99346E-02
-2.06559E-02
-2.17356E-02
-2.27956E-02
-2.39413E-02
-2.47742E-02
-2.53521E-02
-2.53414E-02
-2.47948E-02
-2.36540E-02
-2.18806E-02
-1.96743E-02
-2.90011E-02
-2.81670E-02
-2.78876E-02
-2.81472E-02
-2.86880E-02
-2.95609E-02
-3.05728E-02
-3.16873E-02
-3.27271E-02
-3.35796E-02
-3.41186E-02
-3.42041E-02
-3.38994E-02
-3.30032E-02
-3.18327E-02
-2.99400E-02
-3.75563E-02
-3.68045E-02
-3.66314E-02
-3.69193E-02
-3.75158E-02
-3.84097E-02
-3.94091E-02
-4.05427E-02
-4.15267E-02
-4.24187E-02
-4.28973E-02
-4.31574E-02
-4.28404E-02
-4.23828E-02
-4.12788E-02
-4.01183E-02
-4.58628E-02
-4.51598E-02
-4.50704E-02
-4.52873E-02
-4.59502E-02
-4.67153E-02
-4.78127E-02
-4.87941E-02
-4.98967E-02
-5.06208E-02
-5.12713E-02
-5.13464E-02
-5.13615E-02
-5.07200E-02
-5.01441E-02
-4.87845E-02
-5.33761E-02
-5.28754E-02
-5.26634E-02
-5.29858E-02
-5.33938E-02
-5.42922E-02
-5.50950E-02
-5.62397E-02
-5.70571E-02
-5.79616E-02
-5.83156E-02
-5.86594E-02
-5.83407E-02
-5.81554E-02
-5.72383E-02
-5.65384E-02
-6.00482E-02
-5.94317E-02
-5.93708E-02
-5.93843E-02
-5.99553E-02
-6.04046E-02
-6.13695E-02
-6.20395E-02
-6.29972E-02
-6.34754E-02
-6.40228E-02
-6.39528E-02
-6.40078E-02
-6.33847E-02
-6.31007E-02
-6.21020E-02
-6.52618E-02
-6.48716E-02
-6.45918E-02
-6.48664E-02
-6.49571E-02
-6.55907E-02
-6.58277E-02
-6.65129E-02
-6.67516E-02
-6.72364E-02
-6.72536E-02
-6.74383E-02
-6.70345E-02
-6.69553E-02
-6.61048E-02
-6.57286E-02
-6.91385E-02
-6.87764E-02
-6.89261E-02
-6.89064E-02
-6.92955E-02
-6.92518E-02
-6.92824E-02
-6.88243E-02
-6.85186E-02
-6.81381E-02
-6.79696E-02
-6.78521E-02
-6.80147E-02
-6.75806E-02
-6.70336E-02
-6.57978E-02
 3.37618E-02
 3.63307E-02
 3.66565E-02
 3.70120E-02
 3.67902E-02
 3.69154E-02
 3.63424E-02
 3.59931E-02
 3.49169E-02
 3.44315E-02
 3.32425E-02
 3.35569E-02
 3.44894E-02
 3.78876E-02
 4.20413E-02
 4.71890E-02
 3.27565E-02
 3.43312E-02
 3.56254E-02
 3.59174E-02
 3.61245E-02
 3.56273E-02
 3.50476E-02
 3.38411E-02
 3.28413E-02
 3.14489E-02
 3.09821E-02
 3.07325E-02
 3.24995E-02
 3.53243E-02
 3.95554E-02
 4.43847E-02
 2.99554E-02
 3.16173E-02
 3.22736E-02
 3.28811E-02
 3.26563E-02
 3.23256E-02
 3.12979E-02
 3.03101E-02
 2.88724E-02
 2.79825E-02
 2.70982E-02
 2.75264E-02
 2.86251E-02
 3.13911E-02
 3.48567E-02
 3.92736E-02
 2.53525E-02
 2.66888E-02
 2.76566E-02
 2.77356E-02
 2.76917E-02
 2.69494E-02
 2.61578E-02
 2.48710E-02
 2.38453E-02
 2.26890E-02
 2.23289E-02
 2.23299E-02
 2.35799E-02
 2.55320E-02
 2.84396E-02
 3.20079E-02
 1.95127E-02
 2.09190E-02
 2.13740E-02
 2.15845E-02
 2.11086E-02
 2.05235E-02
 1.94462E-02
 1.84391E-02
 1.72235E-02
 1.64403E-02
 1.58361E-02
 1.60453E-02
 1.67829E-02
 1.83819E-02
 2.05935E-02
 2.34293E-02
 1.29220E-02
 1.39333E-02
 1.44350E-02
 1.42522E-02
 1.38520E-02
 1.29858E-02
 1.20504E-02
 1.08800E-02
 9.88272E-03
 8.96581E-03
 8.52427E-03
 8.47933E-03
 9.05341E-03
 1.01963E-02
 1.18138E-02
 1.40998E-02
 5.63373E-03
 6.54859E-03
 6.76019E-03
 6.58170E-03
 5.96158E-03
 5.13320E-03
 4.07112E-03
 2.97739E-03
 1.91500E-03
 1.06818E-03
 5.43252E-04
 4.04498E-04
 7.88753E-04
 1.51380E-03
 2.84851E-03
 4.44065E-03
-1.90067E-03
-1.13767E-03
-9.73985E-04
-1.25302E-03
-1.89580E-03
-2.76556E-03
-3.85489E-03
-4.94239E-03
-6.03732E-03
-6.85572E-03
-7.48153E-03
-7.60924E-03
-7.52653E-03
-6.84243E-03
-6.05515E-03
-4.54325E-03
-9.23132E-03
-8.57438E-03
-8.40387E-03
-8.74653E-03
-9.30899E-03
-1.02625E-02
-1.12366E-02
-1.24366E-02
-1.34057E-02
-1.43640E-02
-1.48453E-02
-1.52145E-02
-1.49748E-02
-1.47355E-02
-1.38254E-02
-1.30101E-02
-1.57297E-02
-1.52087E-02
-1.52047E-02
-1.53840E-02
-1.60617E-02
-1.67589E-02
-1.78817E-02
-1.88206E-02
-1.99554E-02
-2.06612E-02
-2.13497E-02
-2.14340E-02
-2.15457E-02
-2.09903E-02
-2.06127E-02
-1.94179E-02
-2.15212E-02
-2.10842E-02
-2.08738E-02
-2.12092E-02
-2.15296E-02
-2.23841E-02
-2.30555E-02
-2.41319E-02
-2.48398E-02
-2.56839E-02
-2.59966E-02
-2.63380E-02
-2.60425E-02
-2.59688E-02
-2.51754E-02
-2.47213E-02
-2.60262E-02
-2.55780E-02
-2.56410E-02
-2.56594E-02
-2.61990E-02
-2.64582E-02
-2.72125E-02
-2.75454E-02
-2.81990E-02
-2.84260E-02
-2.88192E-02
-2.87496E-02
-2.88789E-02
-2.83225E-02
-2.81329E-02
-2.70486E-02
-2.92800E-02
-2.92442E-02
-2.91000E-02
-2.94514E-02
-2.95685E-02
-2.99290E-02
-2.97198E-02
-2.95431E-02
-2.91086E-02
-2.88970E-02
-2.86317E-02
-2.87090E-02
-2.88543E-02
-2.88074E-02
-2.82376E-02
-2.78296E-02
 6.37998E-02
 6.52867E-02
 6.64218E-02
 6.62886E-02
 6.67142E-02
 6.64669E-02
 6.66807E-02
 6.62031E-02
 6.60834E-02
 6.54133E-02
 6.54109E-02
 6.53545E-02
 6.70201E-02
 6.89499E-02
 7.21953E-02
 7.61520E-02
 6.28293E-02
 6.47031E-02
 6.54755E-02
 6.62500E-02
 6.62621E-02
 6.62262E-02
 6.55800E-02
 6.50437E-02
 6.40267E-02
 6.35719E-02
 6.29905E-02
 6.35988E-02
 6.46690E-02
 6.71881E-02
 7.02632E-02
 7.44567E-02
 6.07209E-02
 6.21183E-02
 6.33296E-02
 6.36422E-02
 6.38885E-02
 6.33978E-02
 6.28826E-02
 6.18195E-02
 6.10733E-02
 6.01049E-02
 5.99921E-02
 6.01243E-02
 6.15146E-02
 6.34743E-02
 6.64871E-02
 7.01015E-02
 5.65777E-02
 5.84757E-02
 5.91819E-02
 5.97074E-02
 5.94646E-02
 5.91468E-02
 5.82390E-02
 5.74449E-02
 5.63441E-02
 5.57573E-02
 5.52568E-02
 5.56784E-02
 5.65418E-02
 5.83924E-02
 6.07897E-02
 6.40250E-02
 5.22527E-02
 5.33952E-02
 5.41625E-02
 5.41696E-02
 5.40421E-02
 5.33359E-02
 5.26151E-02
 5.15412E-02
 5.07177E-02
 4.98679E-02
 4.96110E-02