# vtk DataFile Version 2.0
Output of NLACE
ASCII
DATASET UNSTRUCTURED_GRID
POINTS         3120 FLOAT
 1.972100E-01 -9.337178E+00 -1.349336E+01
 1.773206E+00 -9.340790E+00 -1.349290E+01
 3.349202E+00 -9.344402E+00 -1.349243E+01
 4.925198E+00 -9.348014E+00 -1.349197E+01
 6.501194E+00 -9.351626E+00 -1.349151E+01
 8.077190E+00 -9.355238E+00 -1.349104E+01
 9.653186E+00 -9.358850E+00 -1.349058E+01
 1.122918E+01 -9.362462E+00 -1.349011E+01
 1.280518E+01 -9.366074E+00 -1.348965E+01
 1.438117E+01 -9.369686E+00 -1.348919E+01
 1.595717E+01 -9.373298E+00 -1.348872E+01
 1.753317E+01 -9.376910E+00 -1.348826E+01
 1.910916E+01 -9.380522E+00 -1.348779E+01
 2.068516E+01 -9.384134E+00 -1.348733E+01
 2.226115E+01 -9.387746E+00 -1.348687E+01
 2.383715E+01 -9.391358E+00 -1.348640E+01
 1.936540E-01 -1.091852E+01 -1.373697E+01
 1.769650E+00 -1.092213E+01 -1.373650E+01
 3.345646E+00 -1.092575E+01 -1.373604E+01
 4.921642E+00 -1.092936E+01 -1.373558E+01
 6.497638E+00 -1.093297E+01 -1.373511E+01
 8.073634E+00 -1.093658E+01 -1.373465E+01
 9.649630E+00 -1.094019E+01 -1.373418E+01
 1.122563E+01 -1.094381E+01 -1.373372E+01
 1.280162E+01 -1.094742E+01 -1.373325E+01
 1.437762E+01 -1.095103E+01 -1.373279E+01
 1.595361E+01 -1.095464E+01 -1.373233E+01
 1.752961E+01 -1.095825E+01 -1.373186E+01
 1.910561E+01 -1.096187E+01 -1.373140E+01
 2.068160E+01 -1.096548E+01 -1.373094E+01
 2.225760E+01 -1.096909E+01 -1.373047E+01
 2.383359E+01 -1.097270E+01 -1.373001E+01
 1.900980E-01 -1.249987E+01 -1.398057E+01
 1.766094E+00 -1.250348E+01 -1.398011E+01
 3.342090E+00 -1.250709E+01 -1.397964E+01
 4.918086E+00 -1.251070E+01 -1.397918E+01
 6.494082E+00 -1.251431E+01 -1.397871E+01
 8.070078E+00 -1.251793E+01 -1.397825E+01
 9.646074E+00 -1.252154E+01 -1.397779E+01
 1.122207E+01 -1.252515E+01 -1.397732E+01
 1.279807E+01 -1.252876E+01 -1.397686E+01
 1.437406E+01 -1.253237E+01 -1.397640E+01
 1.595006E+01 -1.253599E+01 -1.397593E+01
 1.752605E+01 -1.253960E+01 -1.397547E+01
 1.910205E+01 -1.254321E+01 -1.397500E+01
 2.067805E+01 -1.254682E+01 -1.397454E+01
 2.225404E+01 -1.255043E+01 -1.397407E+01
 2.383004E+01 -1.255405E+01 -1.397361E+01
 1.865420E-01 -1.408121E+01 -1.422417E+01
 1.762538E+00 -1.408482E+01 -1.422371E+01
 3.338534E+00 -1.408843E+01 -1.422325E+01
 4.914530E+00 -1.409205E+01 -1.422278E+01
 6.490526E+00 -1.409566E+01 -1.422232E+01
 8.066522E+00 -1.409927E+01 -1.422185E+01
 9.642518E+00 -1.410288E+01 -1.422139E+01
 1.121851E+01 -1.410649E+01 -1.422093E+01
 1.279451E+01 -1.411011E+01 -1.422046E+01
 1.437051E+01 -1.411372E+01 -1.422000E+01
 1.594650E+01 -1.411733E+01 -1.421953E+01
 1.752250E+01 -1.412094E+01 -1.421907E+01
 1.909849E+01 -1.412455E+01 -1.421861E+01
 2.067449E+01 -1.412817E+01 -1.421814E+01
 2.225049E+01 -1.413178E+01 -1.421768E+01
 2.382648E+01 -1.413539E+01 -1.421721E+01
 1.829860E-01 -1.566255E+01 -1.446778E+01
 1.758982E+00 -1.566617E+01 -1.446731E+01
 3.334978E+00 -1.566978E+01 -1.446685E+01
 4.910974E+00 -1.567339E+01 -1.446639E+01
 6.486970E+00 -1.567700E+01 -1.446592E+01
 8.062966E+00 -1.568061E+01 -1.446546E+01
 9.638962E+00 -1.568423E+01 -1.446499E+01
 1.121496E+01 -1.568784E+01 -1.446453E+01
 1.279095E+01 -1.569145E+01 -1.446407E+01
 1.436695E+01 -1.569506E+01 -1.446360E+01
 1.594295E+01 -1.569867E+01 -1.446314E+01
 1.751894E+01 -1.570229E+01 -1.446268E+01
 1.909494E+01 -1.570590E+01 -1.446221E+01
 2.067093E+01 -1.570951E+01 -1.446175E+01
 2.224693E+01 -1.571312E+01 -1.446128E+01
 2.382293E+01 -1.571673E+01 -1.446082E+01
 1.794300E-01 -1.724390E+01 -1.471138E+01
 1.755426E+00 -1.724751E+01 -1.471092E+01
 3.331422E+00 -1.725112E+01 -1.471045E+01
 4.907418E+00 -1.725473E+01 -1.470999E+01
 6.483414E+00 -1.725835E+01 -1.470953E+01
 8.059410E+00 -1.726196E+01 -1.470906E+01
 9.635406E+00 -1.726557E+01 -1.470860E+01
 1.121140E+01 -1.726918E+01 -1.470814E+01
 1.278740E+01 -1.727279E+01 -1.470767E+01
 1.436339E+01 -1.727641E+01 -1.470721E+01
 1.593939E+01 -1.728002E+01 -1.470674E+01
 1.751539E+01 -1.728363E+01 -1.470628E+01
 1.909138E+01 -1.728724E+01 -1.470581E+01
 2.066738E+01 -1.729085E+01 -1.470535E+01
 2.224337E+01 -1.729447E+01 -1.470489E+01
 2.381937E+01 -1.729808E+01 -1.470442E+01
 1.758740E-01 -1.882524E+01 -1.495499E+01
 1.751870E+00 -1.882885E+01 -1.495452E+01
 3.327866E+00 -1.883247E+01 -1.495406E+01
 4.903862E+00 -1.883608E+01 -1.495359E+01
 6.479858E+00 -1.883969E+01 -1.495313E+01
 8.055854E+00 -1.884330E+01 -1.495267E+01
 9.631850E+00 -1.884691E+01 -1.495220E+01
 1.120785E+01 -1.885053E+01 -1.495174E+01
 1.278384E+01 -1.885414E+01 -1.495127E+01
 1.435984E+01 -1.885775E+01 -1.495081E+01
 1.593583E+01 -1.886136E+01 -1.495035E+01
 1.751183E+01 -1.886497E+01 -1.494988E+01
 1.908783E+01 -1.886859E+01 -1.494942E+01
 2.066382E+01 -1.887220E+01 -1.494895E+01
 2.223982E+01 -1.887581E+01 -1.494849E+01
 2.381581E+01 -1.887942E+01 -1.494803E+01
 1.723180E-01 -2.040659E+01 -1.519859E+01
 1.748314E+00 -2.041020E+01 -1.519813E+01
 3.324310E+00 -2.041381E+01 -1.519766E+01
 4.900306E+00 -2.041742E+01 -1.519720E+01
 6.476302E+00 -2.042103E+01 -1.519673E+01
 8.052298E+00 -2.042465E+01 -1.519627E+01
 9.628294E+00 -2.042826E+01 -1.519581E+01
 1.120429E+01 -2.043187E+01 -1.519534E+01
 1.278029E+01 -2.043548E+01 -1.519488E+01
 1.435628E+01 -2.043909E+01 -1.519441E+01
 1.593228E+01 -2.044271E+01 -1.519395E+01
 1.750827E+01 -2.044632E+01 -1.519349E+01
 1.908427E+01 -2.044993E+01 -1.519302E+01
 2.066027E+01 -2.045354E+01 -1.519256E+01
 2.223626E+01 -2.045715E+01 -1.519209E+01
 2.381226E+01 -2.046077E+01 -1.519163E+01
 1.687620E-01 -2.198793E+01 -1.544219E+01
 1.744758E+00 -2.199154E+01 -1.544173E+01
 3.320754E+00 -2.199515E+01 -1.544127E+01
 4.896750E+00 -2.199877E+01 -1.544080E+01
 6.472746E+00 -2.200238E+01 -1.544034E+01
 8.048742E+00 -2.200599E+01 -1.543988E+01
 9.624738E+00 -2.200960E+01 -1.543941E+01
 1.120073E+01 -2.201321E+01 -1.543895E+01
 1.277673E+01 -2.201683E+01 -1.543848E+01
 1.435273E+01 -2.202044E+01 -1.543802E+01
 1.592872E+01 -2.202405E+01 -1.543755E+01
 1.750472E+01 -2.202766E+01 -1.543709E+01
 1.908071E+01 -2.203127E+01 -1.543663E+01
 2.065671E+01 -2.203489E+01 -1.543616E+01
 2.223271E+01 -2.203850E+01 -1.543570E+01
 2.380870E+01 -2.204211E+01 -1.543523E+01
 1.652060E-01 -2.356927E+01 -1.568580E+01
 1.741202E+00 -2.357289E+01 -1.568534E+01
 3.317198E+00 -2.357650E+01 -1.568487E+01
 4.893194E+00 -2.358011E+01 -1.568441E+01
 6.469190E+00 -2.358372E+01 -1.568394E+01
 8.045186E+00 -2.358733E+01 -1.568348E+01
 9.621182E+00 -2.359095E+01 -1.568301E+01
 1.119718E+01 -2.359456E+01 -1.568255E+01
 1.277317E+01 -2.359817E+01 -1.568209E+01
 1.434917E+01 -2.360178E+01 -1.568162E+01
 1.592517E+01 -2.360539E+01 -1.568116E+01
 1.750116E+01 -2.360901E+01 -1.568070E+01
 1.907716E+01 -2.361262E+01 -1.568023E+01
 2.065315E+01 -2.361623E+01 -1.567977E+01
 2.222915E+01 -2.361984E+01 -1.567930E+01
 2.380515E+01 -2.362345E+01 -1.567884E+01
 1.616500E-01 -2.515062E+01 -1.592940E+01
 1.737646E+00 -2.515423E+01 -1.592894E+01
 3.313642E+00 -2.515784E+01 -1.592847E+01
 4.889638E+00 -2.516145E+01 -1.592801E+01
 6.465634E+00 -2.516507E+01 -1.592755E+01
 8.041630E+00 -2.516868E+01 -1.592708E+01
 9.617626E+00 -2.517229E+01 -1.592662E+01
 1.119362E+01 -2.517590E+01 -1.592615E+01
 1.276962E+01 -2.517951E+01 -1.592569E+01
 1.434561E+01 -2.518313E+01 -1.592523E+01
 1.592161E+01 -2.518674E+01 -1.592476E+01
 1.749761E+01 -2.519035E+01 -1.592430E+01
 1.907360E+01 -2.519396E+01 -1.592383E+01
 2.064960E+01 -2.519757E+01 -1.592337E+01
 2.222559E+01 -2.520119E+01 -1.592291E+01
 2.380159E+01 -2.520480E+01 -1.592244E+01
 1.580940E-01 -2.673196E+01 -1.617301E+01
 1.734090E+00 -2.673557E+01 -1.617254E+01
 3.310086E+00 -2.673919E+01 -1.617208E+01
 4.886082E+00 -2.674280E+01 -1.617161E+01
 6.462078E+00 -2.674641E+01 -1.617115E+01
 8.038074E+00 -2.675002E+01 -1.617069E+01
 9.614070E+00 -2.675363E+01 -1.617022E+01
 1.119007E+01 -2.675725E+01 -1.616976E+01
 1.276606E+01 -2.676086E+01 -1.616929E+01
 1.434206E+01 -2.676447E+01 -1.616883E+01
 1.591805E+01 -2.676808E+01 -1.616837E+01
 1.749405E+01 -2.677169E+01 -1.616790E+01
 1.907005E+01 -2.677531E+01 -1.616744E+01
 2.064604E+01 -2.677892E+01 -1.616698E+01
 2.222204E+01 -2.678253E+01 -1.616651E+01
 2.379803E+01 -2.678614E+01 -1.616605E+01
 1.545380E-01 -2.831331E+01 -1.641661E+01
 1.730534E+00 -2.831692E+01 -1.641615E+01
 3.306530E+00 -2.832053E+01 -1.641568E+01
 4.882526E+00 -2.832414E+01 -1.641522E+01
 6.458522E+00 -2.832775E+01 -1.641475E+01
 8.034518E+00 -2.833137E+01 -1.641429E+01
 9.610514E+00 -2.833498E+01 -1.641383E+01
 1.118651E+01 -2.833859E+01 -1.641336E+01
 1.276251E+01 -2.834220E+01 -1.641290E+01
 1.433850E+01 -2.834581E+01 -1.641243E+01
 1.591450E+01 -2.834943E+01 -1.641197E+01
 1.749049E+01 -2.835304E+01 -1.641151E+01
 1.906649E+01 -2.835665E+01 -1.641104E+01
 2.064249E+01 -2.836026E+01 -1.641058E+01
 2.221848E+01 -2.836387E+01 -1.641011E+01
 2.379448E+01 -2.836749E+01 -1.640965E+01
 2.232970E-01 -9.597983E+00 -1.170574E+01
 1.799293E+00 -9.601119E+00 -1.170521E+01
 3.375289E+00 -9.604255E+00 -1.170468E+01
 4.951285E+00 -9.607391E+00 -1.170414E+01
 6.527281E+00 -9.610527E+00 -1.170361E+01
 8.103277E+00 -9.613663E+00 -1.170308E+01
 9.679273E+00 -9.616799E+00 -1.170255E+01
 1.125527E+01 -9.619935E+00 -1.170202E+01
 1.283127E+01 -9.623071E+00 -1.170148E+01
 1.440726E+01 -9.626207E+00 -1.170095E+01
 1.598326E+01 -9.629343E+00 -1.170042E+01
 1.755925E+01 -9.632479E+00 -1.169989E+01
 1.913525E+01 -9.635615E+00 -1.169936E+01
 2.071124E+01 -9.638751E+00 -1.169882E+01
 2.228724E+01 -9.641887E+00 -1.169829E+01
 2.386324E+01 -9.645023E+00 -1.169776E+01
 2.202130E-01 -1.118396E+01 -1.191705E+01
 1.796209E+00 -1.118710E+01 -1.191652E+01
 3.372205E+00 -1.119023E+01 -1.191599E+01
 4.948201E+00 -1.119337E+01 -1.191546E+01
 6.524197E+00 -1.119651E+01 -1.191492E+01
 8.100193E+00 -1.119964E+01 -1.191439E+01
 9.676189E+00 -1.120278E+01 -1.191386E+01
 1.125219E+01 -1.120591E+01 -1.191333E+01
 1.282818E+01 -1.120905E+01 -1.191280E+01
 1.440418E+01 -1.121219E+01 -1.191226E+01
 1.598017E+01 -1.121532E+01 -1.191173E+01
[...]
POINT_DATA         3120
 SCALARS predictedDisp11 float  1                  
LOOKUP_TABLE default
-1.39282E-01
-1.37805E-01
-1.36627E-01
-1.35492E-01
-1.34648E-01
-1.33424E-01
-1.31009E-01
-1.27736E-01
-1.23575E-01
-1.19195E-01
-1.14635E-01
-1.11670E-01
-1.11679E-01
-1.15310E-01
-1.18558E-01
-1.19366E-01
-1.44202E-01
-1.42694E-01
-1.41200E-01
-1.40127E-01
-1.39271E-01
-1.38051E-01
-1.35644E-01
-1.32291E-01
-1.28235E-01
-1.23686E-01
-1.19296E-01
-1.16214E-01
-1.16495E-01
-1.19887E-01
-1.23236E-01
-1.24816E-01
-1.49883E-01
-1.48150E-01
-1.46535E-01
-1.45376E-01
-1.44382E-01
-1.42959E-01
-1.40720E-01
-1.37723E-01
-1.34082E-01
-1.30216E-01
-1.26512E-01
-1.24110E-01
-1.23910E-01
-1.26029E-01
-1.27972E-01
-1.27836E-01
-1.55436E-01
-1.53887E-01
-1.52335E-01
-1.51033E-01
-1.49848E-01
-1.48372E-01
-1.46368E-01
-1.43796E-01
-1.40895E-01
-1.37776E-01
-1.34986E-01
-1.33000E-01
-1.32557E-01
-1.33197E-01
-1.33838E-01
-1.33194E-01
-1.61093E-01
-1.59706E-01
-1.58249E-01
-1.56918E-01
-1.55614E-01
-1.54186E-01
-1.52412E-01
-1.50377E-01
-1.48050E-01
-1.45725E-01
-1.43548E-01
-1.41986E-01
-1.41091E-01
-1.40793E-01
-1.40199E-01
-1.39020E-01
-1.67065E-01
-1.65776E-01
-1.64347E-01
-1.62926E-01
-1.61579E-01
-1.60236E-01
-1.58778E-01
-1.57057E-01
-1.55298E-01
-1.53475E-01
-1.51867E-01
-1.50408E-01
-1.49394E-01
-1.48440E-01
-1.47622E-01
-1.46509E-01
-1.73019E-01
-1.71828E-01
-1.70487E-01
-1.69076E-01
-1.67464E-01
-1.66435E-01
-1.65247E-01
-1.63738E-01
-1.62290E-01
-1.60901E-01
-1.59599E-01
-1.58314E-01
-1.57061E-01
-1.55866E-01
-1.54446E-01
-1.53183E-01
-1.78961E-01
-1.77973E-01
-1.76640E-01
-1.75161E-01
-1.73742E-01
-1.72479E-01
-1.71377E-01
-1.70155E-01
-1.68975E-01
-1.67789E-01
-1.66736E-01
-1.65493E-01
-1.64345E-01
-1.62995E-01
-1.62009E-01
-1.61257E-01
-1.84450E-01
-1.83842E-01
-1.82688E-01
-1.81215E-01
-1.79968E-01
-1.78500E-01
-1.77230E-01
-1.76326E-01
-1.75257E-01
-1.74291E-01
-1.73136E-01
-1.72164E-01
-1.70913E-01
-1.69587E-01
-1.68111E-01
-1.67216E-01
-1.90731E-01
-1.89994E-01
-1.88656E-01
-1.87056E-01
-1.85580E-01
-1.84212E-01
-1.83014E-01
-1.81933E-01
-1.81042E-01
-1.80089E-01
-1.79157E-01
-1.78077E-01
-1.76998E-01
-1.75690E-01
-1.74870E-01
-1.74492E-01
-1.96642E-01
-1.95658E-01
-1.94270E-01
-1.92569E-01
-1.90908E-01
-1.89476E-01
-1.88220E-01
-1.87165E-01
-1.86166E-01
-1.85306E-01
-1.84324E-01
-1.83397E-01
-1.82289E-01
-1.81194E-01
-1.79918E-01
-1.79275E-01
-2.01700E-01
-2.00739E-01
-1.99328E-01
-1.97468E-01
-1.95697E-01
-1.94153E-01
-1.92782E-01
-1.91699E-01
-1.90591E-01
-1.89780E-01
-1.88722E-01
-1.87981E-01
-1.86924E-01
-1.86396E-01
-1.85884E-01
-1.85724E-01
-2.06061E-01
-2.05523E-01
-2.03503E-01
-2.01742E-01
-1.99574E-01
-1.98123E-01
-1.96354E-01
-1.95125E-01
-1.93872E-01
-1.92813E-01
-1.91824E-01
-1.90844E-01
-1.90032E-01
-1.89284E-01
-1.89585E-01
-1.89427E-01
-1.14000E-01
-1.12400E-01
-1.11062E-01
-1.09225E-01
-1.07596E-01
-1.06795E-01
-1.05457E-01
-1.03614E-01
-1.01493E-01
-9.90225E-02
-9.64558E-02
-9.40188E-02
-9.35192E-02
-9.49450E-02
-9.62552E-02
-9.73850E-02
-1.18676E-01
-1.16872E-01
-1.15198E-01
-1.13588E-01
-1.12318E-01
-1.11094E-01
-1.09594E-01
-1.07669E-01
-1.05362E-01
-1.02808E-01
-1.00111E-01
-9.79858E-02
-9.69644E-02
-9.85464E-02
-1.00281E-01
-1.00188E-01
-1.24366E-01
-1.21947E-01
-1.20068E-01
-1.18537E-01
-1.17251E-01
-1.15945E-01
-1.14351E-01
-1.12428E-01
-1.10300E-01
-1.07955E-01
-1.05650E-01
-1.03731E-01
-1.02945E-01
-1.03296E-01
-1.03487E-01
-1.02615E-01
-1.28980E-01
-1.26861E-01
-1.25159E-01
-1.23710E-01
-1.22403E-01
-1.21050E-01
-1.19503E-01
-1.17795E-01
-1.15890E-01
-1.13923E-01
-1.11994E-01
-1.10378E-01
-1.09318E-01
-1.08791E-01
-1.08080E-01
-1.06320E-01
-1.34549E-01
-1.32124E-01
-1.30392E-01
-1.28944E-01
-1.27636E-01
-1.26322E-01
-1.24940E-01
-1.23422E-01
-1.21838E-01
-1.20186E-01
-1.18569E-01
-1.17105E-01
-1.15868E-01
-1.14737E-01
-1.13241E-01
-1.11059E-01
-1.39447E-01
-1.37299E-01
-1.35673E-01
-1.34234E-01
-1.32920E-01
-1.31708E-01
-1.30468E-01
-1.29177E-01
-1.27822E-01
-1.26440E-01
-1.25046E-01
-1.23675E-01
-1.22322E-01
-1.20904E-01
-1.19133E-01
-1.16596E-01
-1.45624E-01
-1.42940E-01
-1.41087E-01
-1.39563E-01
-1.38264E-01
-1.37092E-01
-1.35994E-01
-1.34853E-01
-1.33682E-01
-1.32493E-01
-1.31259E-01
-1.29958E-01
-1.28593E-01
-1.27018E-01
-1.25040E-01
-1.22361E-01
-1.50613E-01
-1.48124E-01
-1.46445E-01
-1.44964E-01
-1.43674E-01
-1.42461E-01
-1.41324E-01
-1.40306E-01
-1.39255E-01
-1.38201E-01
-1.37066E-01
-1.35902E-01
-1.34550E-01
-1.33041E-01
-1.31173E-01
-1.28516E-01
-1.56526E-01
-1.53678E-01
-1.51797E-01
-1.50298E-01
-1.48949E-01
-1.47722E-01
-1.46558E-01
-1.45526E-01
-1.44588E-01
-1.43577E-01
-1.42568E-01
-1.41419E-01
-1.40177E-01
-1.38648E-01
-1.36724E-01
-1.33986E-01
-1.61448E-01
-1.58785E-01
-1.57030E-01
-1.55393E-01
-1.53985E-01
-1.52675E-01
-1.51509E-01
-1.50501E-01
-1.49547E-01
-1.48626E-01
-1.47605E-01
-1.46557E-01
-1.45305E-01
-1.43942E-01
-1.42230E-01
-1.39435E-01
-1.68124E-01
-1.64664E-01
-1.62216E-01
-1.60318E-01
-1.58707E-01
-1.57326E-01
-1.56127E-01
-1.55054E-01
-1.54101E-01
-1.53137E-01
-1.52182E-01
-1.51097E-01
-1.49977E-01
-1.48613E-01
-1.46915E-01
-1.44087E-01
-1.72514E-01
-1.69267E-01
-1.67003E-01
-1.64853E-01
-1.63098E-01
-1.61609E-01
-1.60298E-01
-1.59151E-01
-1.58093E-01
-1.57107E-01
-1.56093E-01
-1.55087E-01
-1.53951E-01
-1.52881E-01
-1.51597E-01
-1.48563E-01
-1.75552E-01
-1.74846E-01
-1.71220E-01
-1.68528E-01
-1.66803E-01
-1.65146E-01
-1.63603E-01
-1.62306E-01
-1.60972E-01
-1.59962E-01
-1.58642E-01
-1.57866E-01
-1.56477E-01
-1.55724E-01
-1.54197E-01
-1.52170E-01
-8.89651E-02
-8.74566E-02
-8.47208E-02
-8.11616E-02
-7.59972E-02
-7.84286E-02
-7.94439E-02
-7.91364E-02
-7.81820E-02
-7.68066E-02
-7.48939E-02
-7.24835E-02
-6.82678E-02
-7.16560E-02
-7.50932E-02
-7.24200E-02
-9.31840E-02
-9.09290E-02
-8.87150E-02
-8.59594E-02
-8.37569E-02
-8.36562E-02
-8.33584E-02
-8.25968E-02
-8.14535E-02
-7.99122E-02
-7.78477E-02
-7.52572E-02
-7.38980E-02
-7.44454E-02
-7.52000E-02
-7.49576E-02
-9.77098E-02
-9.54524E-02
-9.33494E-02
-9.15155E-02
-9.00016E-02
-8.89232E-02
-8.79085E-02
-8.68085E-02
-8.55027E-02
-8.39245E-02
-8.20700E-02
-8.01421E-02
-7.84570E-02
-7.81807E-02
-7.79770E-02
-7.64864E-02
-1.02064E-01
-9.99101E-02
-9.81126E-02
-9.64893E-02
-9.51018E-02
-9.38519E-02
-9.26211E-02
-9.13573E-02
-9.00237E-02
-8.85529E-02
-8.68898E-02
-8.51735E-02
-8.36706E-02
-8.24623E-02
-8.09106E-02
-7.89905E-02
-1.06222E-01
-1.04401E-01
-1.02710E-01
-1.01212E-01
-9.98308E-02
-9.85553E-02
-9.73025E-02
-9.60634E-02
-9.47794E-02
-9.33854E-02
-9.19045E-02
-9.02933E-02
-8.86962E-02
-8.70058E-02
-8.51398E-02
-8.28681E-02
-1.11328E-01
-1.09102E-01
-1.07366E-01
-1.05805E-01
-1.04439E-01
-1.03162E-01
-1.01968E-01
-1.00778E-01
-9.95566E-02
-9.82802E-02
-9.68541E-02
-9.53434E-02
-9.36444E-02
-9.18028E-02
-8.95014E-02
-8.67491E-02
-1.16243E-01
-1.13830E-01
-1.12004E-01
-1.10411E-01
-1.08978E-01
-1.07735E-01
-1.06559E-01
-1.05418E-01
-1.04267E-01
-1.03033E-01
-1.01717E-01
-1.00206E-01
-9.85556E-02
-9.66316E-02
-9.44533E-02
-9.19733E-02
-1.21350E-01
-1.18738E-01
-1.16680E-01
-1.14985E-01
-1.13542E-01
-1.12226E-01
-1.11042E-01
-1.09915E-01
-1.08794E-01
-1.07626E-01
-1.06329E-01
-1.04906E-01
-1.03256E-01
-1.01386E-01
-9.90654E-02
-9.61606E-02
-1.25330E-01
-1.23058E-01
-1.21236E-01
-1.19531E-01
-1.18007E-01
-1.16637E-01
-1.15378E-01
-1.14249E-01
-1.13139E-01
-1.11979E-01
-1.10728E-01
-1.09316E-01
-1.07738E-01
-1.05912E-01
-1.03854E-01
-1.01433E-01
-1.30687E-01
-1.28077E-01
-1.25896E-01
-1.23998E-01
-1.22348E-01
-1.20866E-01
-1.19567E-01
-1.18371E-01
-1.17239E-01
-1.16079E-01
-1.14807E-01
-1.13421E-01
-1.11848E-01
-1.10082E-01
-1.07866E-01
-1.04755E-01
-1.36042E-01
-1.32940E-01
-1.30579E-01
-1.28412E-01
-1.26536E-01
-1.24942E-01
-1.23513E-01
-1.22243E-01
-1.21039E-01
-1.19803E-01
-1.18515E-01
-1.17088E-01
-1.15547E-01
-1.13882E-01
-1.12105E-01
-1.09639E-01
-1.41812E-01
-1.38634E-01
-1.35275E-01
-1.32668E-01
-1.30654E-01
-1.28807E-01
-1.27277E-01
-1.25787E-01
-1.24452E-01
-1.23102E-01
-1.21736E-01
-1.20270E-01
-1.18758E-01
-1.17101E-01
-1.15414E-01
-1.12558E-01
-1.45834E-01
-1.42304E-01
-1.39204E-01
-1.36357E-01
-1.34392E-01
-1.32220E-01
-1.30578E-01
-1.28739E-01
-1.27166E-01
-1.25426E-01
-1.24152E-01
-1.22458E-01
-1.21087E-01
-1.19578E-01
-1.18428E-01
-1.17138E-01
-6.50168E-02
-6.26650E-02
-5.87381E-02
-4.99212E-02
-4.40400E-03
-4.60564E-02
-5.27320E-02
-5.43892E-02
-5.43831E-02
-5.39922E-02
-5.31652E-02
-5.24696E-02
-5.22035E-02
-4.74161E-02
-4.15955E-02
-3.91264E-02
-6.73997E-02
-6.54080E-02
-6.25201E-02
-5.83548E-02
-5.25635E-02
-5.54051E-02
-5.69451E-02
-5.74457E-02
-5.72431E-02
-5.64760E-02
-5.54192E-02
-5.37135E-02
-5.14955E-02
-4.89698E-02
-4.61995E-02
-4.30265E-02
-7.10379E-02
-6.89129E-02
-6.68825E-02
-6.45865E-02
-6.24910E-02
-6.19209E-02
-6.15602E-02
-6.10819E-02
-6.04249E-02
-5.95175E-02
-5.81202E-02
-5.63747E-02
-5.42500E-02
-5.19598E-02
-4.91725E-02
-4.61585E-02
-7.43408E-02
-7.26402E-02
-7.09502E-02
-6.93307E-02
-6.78956E-02
-6.67204E-02
-6.57513E-02
-6.48796E-02
-6.39645E-02
-6.28259E-02
-6.14640E-02
-5.96659E-02
-5.76478E-02
-5.53123E-02
-5.28059E-02
-4.99661E-02
-7.86456E-02
-7.65060E-02
-7.48922E-02
-7.33745E-02
-7.20150E-02
-7.07943E-02
-6.96971E-02
-6.86663E-02
-6.76050E-02
-6.64461E-02
-6.49893E-02
-6.33212E-02
-6.12794E-02
-5.90408E-02
-5.64144E-02
-5.34529E-02
-8.24567E-02
-8.02659E-02
-7.86618E-02
-7.71807E-02
-7.58182E-02
-7.46044E-02
-7.34770E-02
-7.24055E-02
-7.13233E-02
-7.00941E-02
-6.87185E-02
-6.70198E-02
-6.51168E-02
-6.28859E-02
-6.04836E-02
-5.78464E-02
-8.60822E-02
-8.39635E-02
-8.23777E-02
-8.08778E-02
-7.95315E-02
-7.82903E-02
-7.71695E-02
-7.60907E-02
-7.49808E-02
-7.37969E-02
-7.23896E-02
-7.08078E-02
-6.89178E-02
-6.68369E-02
-6.44873E-02
-6.17174E-02
-8.97325E-02
-8.76077E-02
-8.60966E-02
-8.45919E-02
-8.31835E-02
-8.19324E-02
-8.07703E-02
-7.96823E-02
-7.85880E-02
-7.73792E-02
-7.60462E-02
-7.44579E-02
-7.26935E-02
-7.06973E-02
-6.86261E-02
-6.63260E-02
-9.37116E-02
-9.15302E-02
-8.98982E-02
-8.83006E-02
-8.68378E-02
-8.54880E-02
-8.42980E-02
-8.31741E-02
-8.20557E-02
-8.08758E-02
-7.95079E-02
-7.79930E-02
-7.62368E-02
-7.43361E-02
-7.22580E-02
-6.95301E-02
-9.77577E-02
-9.54299E-02
-9.38176E-02
-9.20703E-02
-9.04332E-02
-8.90098E-02
-8.77056E-02
-8.65348E-02
-8.53849E-02
-8.41393E-02
-8.27932E-02
-8.12226E-02
-7.95252E-02
-7.76852E-02
-7.58154E-02
-7.34489E-02
-1.02857E-01
-1.00090E-01
-9.79016E-02
-9.58665E-02
-9.40713E-02
-9.24362E-02
-9.10356E-02
-8.97238E-02
-8.84517E-02
-8.71653E-02
-8.56874E-02
-8.41293E-02
-8.23998E-02
-8.06189E-02
-7.87800E-02
-7.57989E-02
-1.06885E-01
-1.04172E-01
-1.01992E-01
-9.97774E-02
-9.76818E-02
-9.59468E-02
-9.42380E-02
-9.27354E-02
-9.12152E-02
-8.96907E-02
-8.81632E-02
-8.65190E-02
-8.48026E-02
-8.32067E-02
-8.17779E-02
-7.94384E-02
-1.09910E-01
-1.09257E-01
-1.05813E-01
-1.03455E-01
-1.01206E-01
-9.92812E-02
-9.71286E-02
-9.53156E-02
-9.31524E-02
-9.13300E-02
-8.94487E-02
-8.80408E-02
-8.62428E-02
-8.48178E-02
-8.33969E-02
-8.19608E-02
-4.12735E-02
-3.91001E-02
-3.66175E-02
-3.29393E-02
-2.80418E-02
-2.94329E-02
-3.00616E-02
-3.02860E-02
-3.03871E-02
-3.02053E-02
-3.01810E-02
-3.02487E-02
-3.17345E-02
-1.95796E-02
-7.47131E-03
-5.50380E-03
-4.28933E-02
-4.07039E-02
-3.85678E-02
-3.59347E-02
-3.31960E-02
-3.24936E-02
-3.26932E-02
-3.27362E-02
-3.26175E-02
-3.24105E-02
-3.17686E-02
-3.11639E-02
-2.81803E-02
-2.21963E-02
-1.53859E-02
-9.56319E-03
-4.48233E-02
-4.29891E-02
-4.12114E-02
-3.93409E-02
-3.76162E-02
-3.64929E-02
-3.58159E-02
-3.54369E-02
-3.50473E-02
-3.43874E-02
-3.35581E-02
-3.17775E-02
-2.92863E-02
-2.47147E-02
-1.96113E-02
-1.45590E-02
-4.76395E-02
-4.55859E-02
-4.40584E-02
-4.25094E-02
-4.10737E-02
-3.98849E-02
-3.89864E-02
-3.82567E-02
-3.75319E-02
-3.67133E-02
-3.53935E-02
-3.37037E-02
-3.09973E-02
-2.76468E-02
-2.37237E-02
-1.93656E-02
-5.07492E-02
-4.84360E-02
-4.68926E-02
-4.54437E-02
-4.41120E-02
-4.29541E-02
-4.19509E-02
-4.10650E-02
-4.01981E-02
-3.91133E-02
-3.78142E-02
-3.59232E-02
-3.36319E-02
-3.07103E-02
-2.75374E-02
-2.40964E-02
-5.33210E-02
-5.11008E-02
-4.96227E-02
-4.82266E-02
-4.69696E-02
-4.58231E-02
-4.48114E-02
-4.38673E-02
-4.28760E-02
-4.17871E-02
-4.03505E-02
-3.86474E-02
-3.64449E-02
-3.39692E-02
-3.12224E-02
-2.79574E-02
-5.52929E-02
-5.34761E-02
-5.22647E-02
-5.09751E-02
-4.97327E-02
-4.86254E-02
-4.75996E-02
-4.66283E-02
-4.56394E-02
-4.44720E-02
-4.31349E-02
-4.14236E-02
-3.94797E-02
-3.72295E-02
-3.49185E-02
-3.22691E-02
-5.83012E-02
-5.62472E-02
-5.50339E-02
-5.37360E-02
-5.25169E-02
-5.13707E-02
-5.03530E-02
-4.93762E-02
-4.83562E-02
-4.72463E-02
-4.58713E-02
-4.43094E-02
-4.24306E-02
-4.04181E-02
-3.83071E-02
-3.54580E-02
-6.12343E-02
-5.91052E-02
-5.79426E-02
-5.66105E-02
-5.52920E-02
-5.41349E-02
-5.30582E-02
-5.20687E-02
-5.10665E-02
-4.99106E-02
-4.86190E-02
-4.70297E-02
-4.52984E-02
-4.33984E-02
-4.15667E-02
-3.92355E-02
-6.47351E-02
-6.24609E-02
-6.10708E-02
-5.95667E-02
-5.81754E-02
-5.68637E-02
-5.57537E-02
-5.47005E-02
-5.36372E-02
-5.25080E-02
-5.11206E-02
-4.96070E-02
-4.78525E-02
-4.60743E-02
-4.43095E-02
-4.14126E-02
-6.84826E-02
-6.58555E-02
-6.44069E-02
-6.27427E-02
-6.11018E-02
-5.97081E-02
-5.83924E-02
-5.72243E-02
-5.60757E-02
-5.47685E-02
-5.33988E-02
-5.17472E-02
-5.00632E-02
-4.83637E-02
-4.69330E-02
-4.45957E-02
-7.26154E-02
-7.01252E-02
-6.80965E-02
-6.60832E-02
-6.43775E-02
-6.26130E-02
-6.11364E-02
-5.96023E-02
-5.81305E-02
-5.66775E-02
-5.50448E-02
-5.34243E-02
-5.17011E-02
-5.00349E-02
-4.88295E-02
-4.61978E-02
-7.62395E-02
-7.36255E-02
-7.16108E-02
-6.95305E-02
-6.77480E-02
-6.57783E-02
-6.37651E-02
-6.15143E-02
-5.94554E-02
-5.71487E-02
-5.56690E-02
-5.38085E-02
-5.23917E-02
-5.06972E-02
-4.96087E-02
-4.76155E-02
-1.79138E-02
-1.54109E-02
-1.35156E-02
-1.17402E-02
-9.44940E-03
-7.97418E-03
-7.11973E-03
-6.24125E-03
-5.65232E-03
-5.23935E-03
-4.44617E-03
-3.90944E-03
-1.20538E-04
 6.34535E-03
 1.39291E-02
 2.08120E-02
-1.84297E-02
-1.62938E-02
-1.44791E-02
-1.24955E-02
-1.05646E-02
-9.20567E-03
-8.29814E-03
-7.84856E-03
-7.51981E-03
-6.97278E-03
-6.41918E-03
-4.53880E-03
-1.62518E-03
 4.47081E-03
 1.11700E-02
 1.72062E-02
-1.93891E-02
-1.73519E-02
-1.57304E-02
-1.40314E-02
-1.24023E-02
-1.10673E-02
-1.02147E-02
-9.62161E-03
-9.09514E-03
-8.54459E-03
-7.32865E-03
-5.64713E-03
-2.23645E-03
 2.30808E-03
 7.69136E-03
 1.35973E-02
-2.09921E-02
-1.88386E-02
-1.73182E-02
-1.57838E-02
-1.43505E-02
-1.31548E-02
-1.22030E-02
-1.14720E-02
-1.08129E-02
-9.88020E-03
-8.69690E-03
-6.59071E-03
-3.83508E-03
 5.43065E-05
 4.36511E-03
 8.98702E-03
-2.27195E-02
-2.04492E-02
-1.89778E-02
-1.75632E-02
-1.62791E-02
-1.51395E-02
-1.41975E-02
-1.33766E-02
-1.25160E-02
-1.15522E-02
-1.00935E-02
-8.25352E-03
-5.60620E-03
-2.50448E-03
 9.69796E-04
 5.10073E-03
-2.39583E-02
-2.18345E-02
-2.05943E-02
-1.93328E-02
-1.81343E-02
-1.70858E-02
-1.61448E-02
-1.52722E-02
-1.43910E-02
-1.32728E-02
-1.19342E-02
-1.00573E-02
-7.83492E-03
-5.13826E-03
-2.29151E-03
 1.00197E-03
-2.52707E-02
-2.32735E-02
-2.22459E-02
-2.10946E-02
-2.00052E-02
-1.89830E-02
-1.80794E-02
-1.72164E-02
-1.62811E-02
-1.52336E-02
-1.38384E-02
-1.21944E-02
-1.01137E-02
-7.83758E-03
-5.44813E-03
-2.19467E-03
-2.70350E-02
-2.49659E-02
-2.40505E-02
-2.29748E-02
-2.18795E-02
-2.09143E-02
-2.00103E-02
-1.91583E-02
-1.82740E-02
-1.71902E-02
-1.59354E-02
-1.43065E-02
-1.24863E-02
-1.04305E-02
-8.42792E-03
-5.79857E-03
-2.91571E-02
-2.70248E-02
-2.60839E-02
-2.49502E-02
-2.38770E-02
-2.28462E-02
-2.19690E-02
-2.11229E-02
-2.02244E-02
-1.92289E-02
-1.79300E-02
-1.64609E-02
-1.46772E-02
-1.28381E-02
-1.10530E-02
-8.06310E-03
-3.15251E-02
-2.91988E-02
-2.83265E-02
-2.71602E-02
-2.59350E-02
-2.49012E-02
-2.39254E-02
-2.30587E-02
-2.21734E-02
-2.10947E-02
-1.98919E-02
-1.83381E-02
-1.66978E-02
-1.49272E-02
-1.33442E-02
-1.07599E-02
-3.44659E-02
-3.20300E-02
-3.09352E-02
-2.95653E-02
-2.82872E-02
-2.70150E-02
-2.59719E-02
-2.49544E-02
-2.39120E-02
-2.28292E-02
-2.14280E-02
-1.99684E-02
-1.82353E-02
-1.66143E-02
-1.52023E-02
-1.21490E-02
-3.76721E-02
-3.50594E-02
-3.39093E-02
-3.24826E-02
-3.08744E-02
-2.95384E-02
-2.80708E-02
-2.67658E-02
-2.54248E-02
-2.39547E-02
-2.25344E-02
-2.08423E-02
-1.92258E-02
-1.76725E-02
-1.65012E-02
-1.37896E-02
-4.02993E-02
-3.92154E-02
-3.71737E-02
-3.55878E-02
-3.39162E-02
-3.22780E-02
-3.02388E-02
-2.82288E-02
-2.59082E-02
-2.40769E-02
-2.19625E-02
-2.05336E-02
-1.88792E-02
-1.75449E-02
-1.58501E-02
-1.42868E-02
 6.44206E-03
 9.20771E-03
 1.07687E-02
 1.22126E-02
 1.40630E-02
 1.57917E-02
 1.74215E-02
 1.86857E-02
 1.97891E-02
 2.10875E-02
 2.21004E-02
 2.43279E-02
 2.73725E-02
 3.24528E-02
 3.81335E-02
 4.38509E-02
 6.32498E-03
 8.66251E-03
 1.05728E-02
 1.24157E-02
 1.41587E-02
 1.57391E-02
 1.68739E-02
 1.77641E-02
 1.85636E-02
 1.93069E-02
 2.07558E-02
 2.26205E-02
 2.62573E-02
 3.08925E-02
 3.63473E-02
 4.22097E-02
 6.34648E-03
 8.55671E-03
 1.02151E-02
 1.19654E-02
 1.36067E-02
 1.49435E-02
 1.60130E-02
 1.68028E-02
 1.74801E-02
 1.84585E-02
 1.96729E-02
 2.19869E-02
 2.50184E-02
 2.93666E-02
 3.41324E-02
 3.92973E-02
 5.91971E-03
 8.17414E-03
 9.73154E-03
 1.12831E-02
 1.27143E-02
 1.39642E-02
 1.49382E-02
 1.57434E-02
 1.65721E-02
 1.74910E-02
 1.90160E-02
 2.09863E-02
 2.39895E-02
 2.75521E-02
 3.15912E-02
 3.63351E-02
 5.57922E-03
 7.82100E-03
 9.14799E-03
 1.05098E-02
 1.17927E-02
 1.28907E-02
 1.38384E-02
 1.46800E-02
 1.55080E-02
 1.66156E-02
 1.79768E-02
 2.00255E-02
 2.25152E-02
 2.56458E-02
 2.89989E-02
 3.29008E-02
 5.29378E-03
 7.43034E-03
 8.52935E-03
 9.71472E-03
 1.08234E-02
 1.18412E-02
 1.27203E-02
 1.35383E-02
 1.44370E-02
 1.54575E-02
 1.69009E-02
 1.86517E-02
 2.09683E-02
 2.35585E-02
 2.63083E-02
 3.00278E-02
 4.74341E-03
 6.91327E-03
 7.80431E-03
 8.82350E-03
 9.84972E-03
 1.07495E-02
 1.15824E-02
 1.23745E-02
 1.32024E-02
 1.42626E-02
 1.55233E-02
 1.72328E-02
 1.91942E-02
 2.14792E-02
 2.37817E-02
 2.68481E-02
 3.97595E-03
 6.12046E-03
 6.88166E-03
 7.84343E-03
 8.76029E-03
 9.64058E-03
 1.03972E-02
 1.11338E-02
 1.19493E-02
 1.28803E-02
 1.41480E-02
 1.56261E-02
 1.74798E-02
 1.94392E-02
 2.13535E-02
 2.46074E-02
 2.69452E-03
 5.09721E-03
 5.74811E-03
 6.64629E-03
 7.60642E-03
 8.41303E-03
 9.17455E-03
 9.86833E-03
 1.06012E-02
 1.15487E-02
 1.26559E-02
 1.41474E-02
 1.57806E-02
 1.76025E-02
 1.92653E-02
 2.20026E-02
 1.46781E-03
 3.69728E-03
 4.32074E-03
 5.28438E-03
 6.20682E-03
 7.12607E-03
 7.85573E-03
 8.56633E-03
 9.32980E-03
 1.01825E-02
 1.13815E-02
 1.27183E-02
 1.43877E-02
 1.60308E-02
 1.74865E-02
 2.08366E-02
-8.69734E-04
 1.89942E-03
 2.51539E-03
 3.50146E-03
 4.63092E-03
 5.56016E-03
 6.48323E-03
 7.28330E-03
 8.10491E-03
 9.14481E-03
 1.02511E-02
 1.17657E-02
 1.32883E-02
 1.49130E-02
 1.61931E-02
 1.91388E-02
-3.16962E-03
-7.76741E-04
 7.21023E-05
 1.33524E-03
 2.45940E-03
 3.77190E-03
 4.84635E-03
 6.03814E-03
 7.24050E-03
 8.43223E-03
 9.89844E-03
 1.12714E-02
 1.28938E-02
 1.43739E-02
 1.53166E-02
 1.86310E-02
-6.00796E-03
-3.92055E-03
-2.64323E-03
-1.26197E-03
-1.85096E-05
 1.53162E-03
 3.16548E-03
 5.25749E-03
 7.08139E-03
 9.18792E-03
 1.07732E-02
 1.25771E-02
 1.35685E-02
 1.51670E-02
 1.59821E-02
 1.88545E-02
 3.19120E-02
 3.43050E-02
 3.60080E-02
 3.75310E-02
 3.92887E-02
 4.11595E-02
 4.29372E-02
 4.46165E-02
 4.61501E-02
 4.76143E-02
 4.93683E-02
 5.14046E-02
 5.48013E-02
 5.85579E-02
 6.30696E-02
 6.81492E-02
 3.21826E-02
 3.45377E-02
 3.63344E-02
 3.82214E-02
 4.00504E-02
 4.16130E-02
 4.30105E-02
 4.41867E-02
 4.52329E-02
 4.65688E-02
 4.80400E-02
 5.04714E-02
 5.34772E-02
 5.75641E-02
 6.20429E-02
 6.69583E-02
 3.27401E-02
 3.50217E-02
 3.67839E-02
 3.85599E-02
 4.02063E-02
 4.16729E-02
 4.28269E-02
 4.38119E-02
 4.48190E-02
 4.58875E-02
 4.75759E-02
 4.96685E-02
 5.27661E-02
 5.63671E-02
 6.04884E-02
 6.52839E-02
 3.28520E-02
 3.55306E-02
 3.71111E-02
 3.87062E-02
 4.01949E-02
 4.14546E-02
 4.25325E-02
 4.34706E-02
 4.43757E-02
 4.55742E-02
 4.70223E-02
 4.92053E-02
 5.18344E-02
 5.51615E-02
 5.87374E-02
 6.29821E-02
 3.40430E-02
 3.62271E-02
 3.74794E-02
 3.88184E-02
 4.00792E-02
 4.12182E-02
 4.21833E-02
 4.30608E-02
 4.40108E-02
 4.50765E-02
 4.66017E-02