# vtk DataFile Version 2.0
Output of NLACE
ASCII
DATASET UNSTRUCTURED_GRID
POINTS           48 FLOAT
 0.000000E+00  0.000000E+00  6.000000E+00
 1.995019E+00  0.000000E+00  6.000000E+00
 3.990037E+00  0.000000E+00  6.000000E+00
 5.985056E+00  0.000000E+00  6.000000E+00
 0.000000E+00  2.010000E+00  6.000000E+00
 1.995019E+00  2.010000E+00  6.000000E+00
 3.990037E+00  2.010000E+00  6.000000E+00
 5.985056E+00  2.010000E+00  6.000000E+00
 0.000000E+00  4.020000E+00  6.000000E+00
 1.995019E+00  4.020000E+00  6.000000E+00
 3.990037E+00  4.020000E+00  6.000000E+00
 5.985056E+00  4.020000E+00  6.000000E+00
 0.000000E+00  0.000000E+00  4.004981E+00
 1.995019E+00  0.000000E+00  4.004981E+00
 3.990037E+00  0.000000E+00  4.004981E+00
 5.985056E+00  0.000000E+00  4.004981E+00
 0.000000E+00  2.010000E+00  4.004981E+00
 1.995019E+00  2.010000E+00  4.004981E+00
 3.990037E+00  2.010000E+00  4.004981E+00
 5.985056E+00  2.010000E+00  4.004981E+00
 0.000000E+00  4.020000E+00  4.004981E+00
 1.995019E+00  4.020000E+00  4.004981E+00
 3.990037E+00  4.020000E+00  4.004981E+00
 5.985056E+00  4.020000E+00  4.004981E+00
 0.000000E+00  0.000000E+00  2.009963E+00
 1.995019E+00  0.000000E+00  2.009963E+00
 3.990037E+00  0.000000E+00  2.009963E+00
 5.985056E+00  0.000000E+00  2.009963E+00
 0.000000E+00  2.010000E+00  2.009963E+00
 1.995019E+00  2.010000E+00  2.009963E+00
 3.990037E+00  2.010000E+00  2.009963E+00
 5.985056E+00  2.010000E+00  2.009963E+00
 0.000000E+00  4.020000E+00  2.009963E+00
 1.995019E+00  4.020000E+00  2.009963E+00
 3.990037E+00  4.020000E+00  2.009963E+00
 5.985056E+00  4.020000E+00  2.009963E+00
-4.409200E-17  0.000000E+00  1.494400E-02
 1.995019E+00  0.000000E+00  1.494400E-02
 3.990037E+00  0.000000E+00  1.494400E-02
 5.985056E+00  0.000000E+00  1.494400E-02
 0.000000E+00  2.010000E+00  1.494400E-02
 1.995019E+00  2.010000E+00  1.494400E-02
 3.990037E+00  2.010000E+00  1.494400E-02
 5.985056E+00  2.010000E+00  1.494400E-02
 0.000000E+00  4.020000E+00  1.494400E-02
 1.995019E+00  4.020000E+00  1.494400E-02
 3.990037E+00  4.020000E+00  1.494400E-02
 5.985056E+00  4.020000E+00  1.494400E-02
CELLS           90         450
4    0   12   16   13
4    5   16   17   13
4    5   16   13    0
4    5    0    4   16
4    1    0    5   13
4    5   13   17   18
4    2   13   18   14
4    2   13    5   18
4    1   13    5    2
4    6    5   18    2
4    2   14   18   15
4    7   18   19   15
4    7   18   15    2
4    7    2    6   18
4    3    2    7   15
4    8   16   20   21
4    5   16   21   17
4    5   16    8   21
4    4   16    8    5
4    9    8   21    5
4    5   17   21   18
4   10   21   22   18
4   10   21   18    5
4   10    5    9   21
4    6    5   10   18
4   10   18   22   23
4    7   18   23   19
4    7   18   10   23
4    6   18   10    7
4   11   10   23    7
4   12   24   28   25
4   17   28   29   25
4   17   28   25   12
4   17   12   16   28
4   13   12   17   25
4   17   25   29   30
4   14   25   30   26
4   14   25   17   30
4   13   25   17   14
4   18   17   30   14
4   14   26   30   27
4   19   30   31   27
4   19   30   27   14
4   19   14   18   30
4   15   14   19   27
4   20   28   32   33
4   17   28   33   29
4   17   28   20   33
4   16   28   20   17
4   21   20   33   17
4   17   29   33   30
4   22   33   34   30
4   22   33   30   17
4   22   17   21   33
4   18   17   22   30
4   22   30   34   35
4   19   30   35   31
4   19   30   22   35
4   18   30   22   19
4   23   22   35   19
4   24   36   40   37
4   29   40   41   37
4   29   40   37   24
4   29   24   28   40
4   25   24   29   37
4   29   37   41   42
4   26   37   42   38
4   26   37   29   42
4   25   37   29   26
4   30   29   42   26
4   26   38   42   39
4   31   42   43   39
4   31   42   39   26
4   31   26   30   42
4   27   26   31   39
4   32   40   44   45
4   29   40   45   41
4   29   40   32   45
4   28   40   32   29
4   33   32   45   29
4   29   41   45   42
4   34   45   46   42
4   34   45   42   29
4   34   29   33   45
4   30   29   34   42
4   34   42   46   47
4   31   42   47   43
4   31   42   34   47
4   30   42   34   31
4   35   34   47   31
CELL_TYPES           90
10
10
10
10
10
10
10
10
10
10
10
10
10
10
10
10
10
10
10
10
10
10
10
10
10
10
10
10
10
10
10
10
10
10
10
10
10
10
10
10
10
10
10
10
10
10
10
10
10
10
10
10
10
10
10
10
10
10
10
10
10
10
10
10
10
10
10
10
10
10
10
10
10
10
10
10
10
10
10
10
10
10
10
10
10
10
10
10
10
10
POINT_DATA           48
 SCALARS predictedDisp11 float  1                  
LOOKUP_TABLE default
 0.00000E+00
 4.98133E-03
 9.96265E-03
 1.49440E-02
 0.00000E+00
 4.98133E-03
 9.96265E-03
 1.49440E-02
 0.00000E+00
 4.98133E-03
 9.96265E-03
 1.49440E-02
 0.00000E+00
 4.98133E-03
 9.96265E-03
 1.49440E-02
 0.00000E+00
 4.98133E-03
 9.96265E-03
 1.49440E-02
 0.00000E+00
 4.98133E-03
 9.96265E-03
 1.49440E-02
 0.00000E+00
 4.98133E-03
 9.96265E-03
 1.49440E-02
 0.00000E+00
 4.98133E-03
 9.96265E-03
 1.49440E-02
 0.00000E+00
 4.98133E-03
 9.96265E-03
 1.49440E-02
-7.60934E-17
 4.98133E-03
 9.96265E-03
 1.49440E-02
 0.00000E+00
 4.98133E-03
 9.96265E-03
 1.49440E-02
 0.00000E+00
 4.98133E-03
 9.96265E-03
 1.49440E-02
 SCALARS predictedDisp12 float  1                  
LOOKUP_TABLE default
 0.00000E+00
 0.00000E+00
 0.00000E+00
 0.00000E+00
-1.00000E-02
-1.00000E-02
-1.00000E-02
-1.00000E-02
-2.00000E-02
-2.00000E-02
-2.00000E-02
-2.00000E-02
 0.00000E+00
 0.00000E+00
 0.00000E+00
 0.00000E+00
-1.00000E-02
-1.00000E-02
-1.00000E-02
-1.00000E-02
-2.00000E-02
-2.00000E-02
-2.00000E-02
-2.00000E-02
 0.00000E+00
 0.00000E+00
 0.00000E+00
 0.00000E+00
-1.00000E-02
-1.00000E-02
-1.00000E-02
-1.00000E-02
-2.00000E-02
-2.00000E-02
-2.00000E-02
-2.00000E-02
 0.00000E+00
 0.00000E+00
 0.00000E+00
 0.00000E+00
-1.00000E-02
-1.00000E-02
-1.00000E-02
-1.00000E-02
-2.00000E-02
-2.00000E-02
-2.00000E-02
-2.00000E-02
 SCALARS predictedDisp13 float  1                  
LOOKUP_TABLE default
 0.00000E+00
 0.00000E+00
 0.00000E+00
 0.00000E+00
 0.00000E+00
 0.00000E+00
 0.00000E+00
 0.00000E+00
 0.00000E+00
 0.00000E+00
 0.00000E+00
 0.00000E+00
-4.98133E-03
-4.98133E-03
-4.98133E-03
-4.98133E-03
-4.98133E-03
-4.98133E-03
-4.98133E-03
-4.98133E-03
-4.98133E-03
-4.98133E-03
-4.98133E-03
-4.98133E-03
-9.96265E-03
-9.96265E-03
-9.96265E-03
-9.96265E-03
-9.96265E-03
-9.96265E-03
-9.96265E-03
-9.96265E-03
-9.96265E-03
-9.96265E-03
-9.96265E-03
-9.96265E-03
-1.49440E-02
-1.49440E-02
-1.49440E-02
-1.49440E-02
-1.49440E-02
-1.49440E-02
-1.49440E-02
-1.49440E-02
-1.49440E-02
-1.49440E-02
-1.49440E-02
-1.49440E-02
 SCALARS predictedDisp14 float  1                  
LOOKUP_TABLE default
 5.22392E-03
 5.22392E-03
 5.22392E-03
 5.22392E-03
 5.22392E-03
 5.22392E-03
 5.22392E-03
 5.22392E-03
 5.22392E-03
 5.22392E-03
 5.22392E-03
 5.22392E-03
 5.22392E-03
 5.22392E-03
 5.22392E-03
 5.22392E-03
 5.22392E-03
 5.22392E-03
 5.22392E-03
 5.22392E-03
 5.22392E-03
 5.22392E-03
 5.22392E-03
 5.22392E-03
 5.22392E-03
 5.22392E-03
 5.22392E-03
 5.22392E-03
 5.22392E-03
 5.22392E-03
 5.22392E-03
 5.22392E-03
 5.22392E-03
 5.22392E-03
 5.22392E-03
 5.22392E-03
 5.22392E-03
 5.22392E-03
 5.22392E-03
 5.22392E-03
 5.22392E-03
 5.22392E-03
 5.22392E-03
 5.22392E-03
 5.22392E-03
 5.22392E-03
 5.22392E-03
 5.22392E-03
 SCALARS NLP float  1                              
LOOKUP_TABLE default
 0.00000E+00
 0.00000E+00
 0.00000E+00
 0.00000E+00
 0.00000E+00
 0.00000E+00
 0.00000E+00
 0.00000E+00
 0.00000E+00
 0.00000E+00
 0.00000E+00
 0.00000E+00
 0.00000E+00
 0.00000E+00
 0.00000E+00
 0.00000E+00
 0.00000E+00
 0.00000E+00
 0.00000E+00
 0.00000E+00
 0.00000E+00
 0.00000E+00
 0.00000E+00
 0.00000E+00
 0.00000E+00
 0.00000E+00
 0.00000E+00
 0.00000E+00
 0.00000E+00
 0.00000E+00
 0.00000E+00
 0.00000E+00
 0.00000E+00
 0.00000E+00
 0.00000E+00
 0.00000E+00
 0.00000E+00
 0.00000E+00
 0.00000E+00
 0.00000E+00
 0.00000E+00
 0.00000E+00
 0.00000E+00
 0.00000E+00
 0.00000E+00
 0.00000E+00
 0.00000E+00
 0.00000E+00
 SCALARS SM float  1                               
LOOKUP_TABLE default
 1.05000E+00
 1.05000E+00
 1.05000E+00
 1.05000E+00
 1.05000E+00
 1.05000E+00
 1.05000E+00
 1.05000E+00
 1.05000E+00
 1.05000E+00
 1.05000E+00
 1.05000E+00
 1.05000E+00
 1.05000E+00
 1.05000E+00
 1.05000E+00
 1.05000E+00
 1.05000E+00
 1.05000E+00
 1.05000E+00
 1.05000E+00
 1.05000E+00
 1.05000E+00
 1.05000E+00
 1.05000E+00
 1.05000E+00
 1.05000E+00
 1.05000E+00
 1.05000E+00
 1.05000E+00
 1.05000E+00
 1.05000E+00
 1.05000E+00
 1.05000E+00
 1.05000E+00
 1.05000E+00
 1.05000E+00
 1.05000E+00
 1.05000E+00
 1.05000E+00
 1.05000E+00
 1.05000E+00
 1.05000E+00
 1.05000E+00
 1.05000E+00
 1.05000E+00
 1.05000E+00
 1.05000E+00
