# vtk DataFile Version 2.0
Output of NLACE
ASCII
DATASET UNSTRUCTURED_GRID
POINTS           72 FLOAT
 1.095652E+00 -6.180602E+00  0.000000E+00
 4.747826E+00 -6.180602E+00  0.000000E+00
 8.400000E+00 -6.180602E+00  0.000000E+00
 1.205217E+01 -6.180602E+00  0.000000E+00
 1.570435E+01 -6.180602E+00  0.000000E+00
 1.935652E+01 -6.180602E+00  0.000000E+00
 2.300870E+01 -6.180602E+00  0.000000E+00
 2.666087E+01 -6.180602E+00  0.000000E+00
 1.095652E+00 -1.081605E+01  0.000000E+00
 4.747826E+00 -1.081605E+01  0.000000E+00
 8.400000E+00 -1.081605E+01  0.000000E+00
 1.205217E+01 -1.081605E+01  0.000000E+00
 1.570435E+01 -1.081605E+01  0.000000E+00
 1.935652E+01 -1.081605E+01  0.000000E+00
 2.300870E+01 -1.081605E+01  0.000000E+00
 2.666087E+01 -1.081605E+01  0.000000E+00
 1.095652E+00 -1.545151E+01  0.000000E+00
 4.747826E+00 -1.545151E+01  0.000000E+00
 8.400000E+00 -1.545151E+01  0.000000E+00
 1.205217E+01 -1.545151E+01  0.000000E+00
 1.570435E+01 -1.545151E+01  0.000000E+00
 1.935652E+01 -1.545151E+01  0.000000E+00
 2.300870E+01 -1.545151E+01  0.000000E+00
 2.666087E+01 -1.545151E+01  0.000000E+00
 1.095652E+00 -2.008696E+01  0.000000E+00
 4.747826E+00 -2.008696E+01  0.000000E+00
 8.400000E+00 -2.008696E+01  0.000000E+00
 1.205217E+01 -2.008696E+01  0.000000E+00
 1.570435E+01 -2.008696E+01  0.000000E+00
 1.935652E+01 -2.008696E+01  0.000000E+00
 2.300870E+01 -2.008696E+01  0.000000E+00
 2.666087E+01 -2.008696E+01  0.000000E+00
 1.095652E+00 -2.472241E+01  0.000000E+00
 4.747826E+00 -2.472241E+01  0.000000E+00
 8.400000E+00 -2.472241E+01  0.000000E+00
 1.205217E+01 -2.472241E+01  0.000000E+00
 1.570435E+01 -2.472241E+01  0.000000E+00
 1.935652E+01 -2.472241E+01  0.000000E+00
 2.300870E+01 -2.472241E+01  0.000000E+00
 2.666087E+01 -2.472241E+01  0.000000E+00
 1.095652E+00 -2.935786E+01  0.000000E+00
 4.747826E+00 -2.935786E+01  0.000000E+00
 8.400000E+00 -2.935786E+01  0.000000E+00
 1.205217E+01 -2.935786E+01  0.000000E+00
 1.570435E+01 -2.935786E+01  0.000000E+00
 1.935652E+01 -2.935786E+01  0.000000E+00
 2.300870E+01 -2.935786E+01  0.000000E+00
 2.666087E+01 -2.935786E+01  0.000000E+00
 1.095652E+00 -3.399331E+01  0.000000E+00
 4.747826E+00 -3.399331E+01  0.000000E+00
 8.400000E+00 -3.399331E+01  0.000000E+00
 1.205217E+01 -3.399331E+01  0.000000E+00
 1.570435E+01 -3.399331E+01  0.000000E+00
 1.935652E+01 -3.399331E+01  0.000000E+00
 2.300870E+01 -3.399331E+01  0.000000E+00
 2.666087E+01 -3.399331E+01  0.000000E+00
 1.095652E+00 -3.862876E+01  0.000000E+00
 4.747826E+00 -3.862876E+01  0.000000E+00
 8.400000E+00 -3.862876E+01  0.000000E+00
 1.205217E+01 -3.862876E+01  0.000000E+00
 1.570435E+01 -3.862876E+01  0.000000E+00
 1.935652E+01 -3.862876E+01  0.000000E+00
 2.300870E+01 -3.862876E+01  0.000000E+00
 2.666087E+01 -3.862876E+01  0.000000E+00
 1.095652E+00 -4.326421E+01  0.000000E+00
 4.747826E+00 -4.326421E+01  0.000000E+00
 8.400000E+00 -4.326421E+01  0.000000E+00
 1.205217E+01 -4.326421E+01  0.000000E+00
 1.570435E+01 -4.326421E+01  0.000000E+00
 1.935652E+01 -4.326421E+01  0.000000E+00
 2.300870E+01 -4.326421E+01  0.000000E+00
 2.666087E+01 -4.326421E+01  0.000000E+00
CELLS           56         280
4    8    9    1    0
4    9   10    2    1
4   10   11    3    2
4   11   12    4    3
4   12   13    5    4
4   13   14    6    5
4   14   15    7    6
4   16   17    9    8
4   17   18   10    9
4   18   19   11   10
4   19   20   12   11
4   20   21   13   12
4   21   22   14   13
4   22   23   15   14
4   24   25   17   16
4   25   26   18   17
4   26   27   19   18
4   27   28   20   19
4   28   29   21   20
4   29   30   22   21
4   30   31   23   22
4   32   33   25   24
4   33   34   26   25
4   34   35   27   26
4   35   36   28   27
4   36   37   29   28
4   37   38   30   29
4   38   39   31   30
4   40   41   33   32
4   41   42   34   33
4   42   43   35   34
4   43   44   36   35
4   44   45   37   36
4   45   46   38   37
4   46   47   39   38
4   48   49   41   40
4   49   50   42   41
4   50   51   43   42
4   51   52   44   43
4   52   53   45   44
4   53   54   46   45
4   54   55   47   46
4   56   57   49   48
4   57   58   50   49
4   58   59   51   50
4   59   60   52   51
4   60   61   53   52
4   61   62   54   53
4   62   63   55   54
4   64   65   57   56
4   65   66   58   57
4   66   67   59   58
4   67   68   60   59
4   68   69   61   60
4   69   70   62   61
4   70   71   63   62
CELL_TYPES           56
9
9
9
9
9
9
9
9
9
9
9
9
9
9
9
9
9
9
9
9
9
9
9
9
9
9
9
9
9
9
9
9
9
9
9
9
9
9
9
9
9
9
9
9
9
9
9
9
9
9
9
9
9
9
9
9
POINT_DATA           72
 SCALARS predictedDisp11 float  1                  
LOOKUP_TABLE default
-0.00000E+00
-4.92424E-04
-9.84849E-04
-1.47727E-03
-1.96970E-03
-2.46212E-03
-2.95455E-03
-3.44697E-03
 1.78654E-17
-4.92424E-04
-9.84849E-04
-1.47727E-03
-1.96970E-03
-2.46212E-03
-2.95455E-03
-3.44697E-03
 2.98856E-17
-4.92424E-04
-9.84849E-04
-1.47727E-03
-1.96970E-03
-2.46212E-03
-2.95455E-03
-3.44697E-03
 4.10295E-17
-4.92424E-04
-9.84849E-04
-1.47727E-03
-1.96970E-03
-2.46212E-03
-2.95455E-03
-3.44697E-03
 5.24078E-17
-4.92424E-04
-9.84849E-04
-1.47727E-03
-1.96970E-03
-2.46212E-03
-2.95455E-03
-3.44697E-03
 6.21264E-17
-4.92424E-04
-9.84849E-04
-1.47727E-03
-1.96970E-03
-2.46212E-03
-2.95455E-03
-3.44697E-03
 7.07973E-17
-4.92424E-04
-9.84849E-04
-1.47727E-03
-1.96970E-03
-2.46212E-03
-2.95455E-03
-3.44697E-03
 7.55653E-17
-4.92424E-04
-9.84849E-04
-1.47727E-03
-1.96970E-03
-2.46212E-03
-2.95455E-03
-3.44697E-03
 7.70577E-17
-4.92424E-04
-9.84849E-04
-1.47727E-03
-1.96970E-03
-2.46212E-03
-2.95455E-03
-3.44697E-03
 SCALARS predictedDisp12 float  1                  
LOOKUP_TABLE default
 1.00000E-02
 1.00000E-02
 1.00000E-02
 1.00000E-02
 1.00000E-02
 1.00000E-02
 1.00000E-02
 1.00000E-02
 8.75000E-03
 8.75000E-03
 8.75000E-03
 8.75000E-03
 8.75000E-03
 8.75000E-03
 8.75000E-03
 8.75000E-03
 7.50000E-03
 7.50000E-03
 7.50000E-03
 7.50000E-03
 7.50000E-03
 7.50000E-03
 7.50000E-03
 7.50000E-03
 6.25000E-03
 6.25000E-03
 6.25000E-03
 6.25000E-03
 6.25000E-03
 6.25000E-03
 6.25000E-03
 6.25000E-03
 5.00000E-03
 5.00000E-03
 5.00000E-03
 5.00000E-03
 5.00000E-03
 5.00000E-03
 5.00000E-03
 5.00000E-03
 3.75000E-03
 3.75000E-03
 3.75000E-03
 3.75000E-03
 3.75000E-03
 3.75000E-03
 3.75000E-03
 3.75000E-03
 2.50000E-03
 2.50000E-03
 2.50000E-03
 2.50000E-03
 2.50000E-03
 2.50000E-03
 2.50000E-03
 2.50000E-03
 1.25000E-03
 1.25000E-03
 1.25000E-03
 1.25000E-03
 1.25000E-03
 1.25000E-03
 1.25000E-03
 1.25000E-03
 0.00000E+00
 0.00000E+00
 0.00000E+00
 0.00000E+00
 0.00000E+00
 0.00000E+00
 0.00000E+00
 0.00000E+00
 SCALARS NLP float  1                              
LOOKUP_TABLE default
 2.00000E+00
 2.00000E+00
 2.00000E+00
 2.00000E+00
 2.00000E+00
 2.00000E+00
 2.00000E+00
 2.00000E+00
 2.00000E+00
 2.00000E+00
 2.00000E+00
 2.00000E+00
 2.00000E+00
 2.00000E+00
 2.00000E+00
 2.00000E+00
 2.00000E+00
 2.00000E+00
 2.00000E+00
 2.00000E+00
 2.00000E+00
 2.00000E+00
 2.00000E+00
 2.00000E+00
 2.00000E+00
 2.00000E+00
 2.00000E+00
 2.00000E+00
 2.00000E+00
 2.00000E+00
 2.00000E+00
 2.00000E+00
 2.00000E+00
 2.00000E+00
 2.00000E+00
 2.00000E+00
 2.00000E+00
 2.00000E+00
 2.00000E+00
 2.00000E+00
 2.00000E+00
 2.00000E+00
 2.00000E+00
 2.00000E+00
 2.00000E+00
 2.00000E+00
 2.00000E+00
 2.00000E+00
 2.00000E+00
 2.00000E+00
 2.00000E+00
 2.00000E+00
 2.00000E+00
 2.00000E+00
 2.00000E+00
 2.00000E+00
 2.00000E+00
 2.00000E+00
 2.00000E+00
 2.00000E+00
 2.00000E+00
 2.00000E+00
 2.00000E+00
 2.00000E+00
 2.00000E+00
 2.00000E+00
 2.00000E+00
 2.00000E+00
 2.00000E+00
 2.00000E+00
 2.00000E+00
 2.00000E+00
 SCALARS SM float  1                               
LOOKUP_TABLE default
 1.05000E+00
 1.05000E+00
 1.05000E+00
 1.05000E+00
 1.05000E+00
 1.05000E+00
 1.05000E+00
 1.05000E+00
 1.05000E+00
 1.05000E+00
 1.05000E+00
 1.05000E+00
 1.05000E+00
 1.05000E+00
 1.05000E+00
 1.05000E+00
 1.05000E+00
 1.05000E+00
 1.05000E+00
 1.05000E+00
 1.05000E+00
 1.05000E+00
 1.05000E+00
 1.05000E+00
 1.05000E+00
 1.05000E+00
 1.05000E+00
 1.05000E+00
 1.05000E+00
 1.05000E+00
 1.05000E+00
 1.05000E+00
 1.05000E+00
 1.05000E+00
 1.05000E+00
 1.05000E+00
 1.05000E+00
 1.05000E+00
 1.05000E+00
 1.05000E+00
 1.05000E+00
 1.05000E+00
 1.05000E+00
 1.05000E+00
 1.05000E+00
 1.05000E+00
 1.05000E+00
 1.05000E+00
 1.05000E+00
 1.05000E+00
 1.05000E+00
 1.05000E+00
 1.05000E+00
 1.05000E+00
 1.05000E+00
 1.05000E+00
 1.05000E+00
 1.05000E+00
 1.05000E+00
 1.05000E+00
 1.05000E+00
 1.05000E+00
 1.05000E+00
 1.05000E+00
 1.05000E+00
 1.05000E+00
 1.05000E+00
 1.05000E+00
 1.05000E+00
 1.05000E+00
 1.05000E+00
 1.05000E+00
