# vtk DataFile Version 2.0
Output of NLACE
ASCII
DATASET UNSTRUCTURED_GRID
POINTS         2601 FLOAT
 0.000000E+00  0.000000E+00  0.000000E+00
 1.000000E+00  0.000000E+00  0.000000E+00
 2.000000E+00  0.000000E+00  0.000000E+00
 3.000000E+00  0.000000E+00  0.000000E+00
 4.000000E+00  0.000000E+00  0.000000E+00
 5.000000E+00  0.000000E+00  0.000000E+00
 6.000000E+00  0.000000E+00  0.000000E+00
 7.000000E+00  0.000000E+00  0.000000E+00
 8.000000E+00  0.000000E+00  0.000000E+00
 9.000000E+00  0.000000E+00  0.000000E+00
 1.000000E+01  0.000000E+00  0.000000E+00
 1.100000E+01  0.000000E+00  0.000000E+00
 1.200000E+01  0.000000E+00  0.000000E+00
 1.300000E+01  0.000000E+00  0.000000E+00
 1.400000E+01  0.000000E+00  0.000000E+00
 1.500000E+01  0.000000E+00  0.000000E+00
 1.600000E+01  0.000000E+00  0.000000E+00
 1.700000E+01  0.000000E+00  0.000000E+00
 1.800000E+01  0.000000E+00  0.000000E+00
 1.900000E+01  0.000000E+00  0.000000E+00
 2.000000E+01  0.000000E+00  0.000000E+00
 2.100000E+01  0.000000E+00  0.000000E+00
 2.200000E+01  0.000000E+00  0.000000E+00
 2.300000E+01  0.000000E+00  0.000000E+00
 2.400000E+01  0.000000E+00  0.000000E+00
 2.500000E+01  0.000000E+00  0.000000E+00
 2.600000E+01  0.000000E+00  0.000000E+00
 2.700000E+01  0.000000E+00  0.000000E+00
 2.800000E+01  0.000000E+00  0.000000E+00
 2.900000E+01  0.000000E+00  0.000000E+00
 3.000000E+01  0.000000E+00  0.000000E+00
 3.100000E+01  0.000000E+00  0.000000E+00
 3.200000E+01  0.000000E+00  0.000000E+00
 3.300000E+01  0.000000E+00  0.000000E+00
 3.400000E+01  0.000000E+00  0.000000E+00
 3.500000E+01  0.000000E+00  0.000000E+00
 3.600000E+01  0.000000E+00  0.000000E+00
 3.700000E+01  0.000000E+00  0.000000E+00
 3.800000E+01  0.000000E+00  0.000000E+00
 3.900000E+01  0.000000E+00  0.000000E+00
 4.000000E+01  0.000000E+00  0.000000E+00
 4.100000E+01  0.000000E+00  0.000000E+00
 4.200000E+01  0.000000E+00  0.000000E+00
 4.300000E+01  0.000000E+00  0.000000E+00
 4.400000E+01  0.000000E+00  0.000000E+00
 4.500000E+01  0.000000E+00  0.000000E+00
 4.600000E+01  0.000000E+00  0.000000E+00
 4.700000E+01  0.000000E+00  0.000000E+00
 4.800000E+01  0.000000E+00  0.000000E+00
 4.900000E+01  0.000000E+00  0.000000E+00
 5.000000E+01  0.000000E+00  0.000000E+00
 0.000000E+00  1.000000E+00  0.000000E+00
 1.000000E+00  1.000000E+00  0.000000E+00
 2.000000E+00  1.000000E+00  0.000000E+00
 3.000000E+00  1.000000E+00  0.000000E+00
 4.000000E+00  1.000000E+00  0.000000E+00
 5.000000E+00  1.000000E+00  0.000000E+00
 6.000000E+00  1.000000E+00  0.000000E+00
 7.000000E+00  1.000000E+00  0.000000E+00
 8.000000E+00  1.000000E+00  0.000000E+00
 9.000000E+00  1.000000E+00  0.000000E+00
 1.000000E+01  1.000000E+00  0.000000E+00
 1.100000E+01  1.000000E+00  0.000000E+00
 1.200000E+01  1.000000E+00  0.000000E+00
 1.300000E+01  1.000000E+00  0.000000E+00
 1.400000E+01  1.000000E+00  0.000000E+00
 1.500000E+01  1.000000E+00  0.000000E+00
 1.600000E+01  1.000000E+00  0.000000E+00
 1.700000E+01  1.000000E+00  0.000000E+00
 1.800000E+01  1.000000E+00  0.000000E+00
 1.900000E+01  1.000000E+00  0.000000E+00
 2.000000E+01  1.000000E+00  0.000000E+00
 2.100000E+01  1.000000E+00  0.000000E+00
 2.200000E+01  1.000000E+00  0.000000E+00
 2.300000E+01  1.000000E+00  0.000000E+00
 2.400000E+01  1.000000E+00  0.000000E+00
 2.500000E+01  1.000000E+00  0.000000E+00
 2.600000E+01  1.000000E+00  0.000000E+00
 2.700000E+01  1.000000E+00  0.000000E+00
 2.800000E+01  1.000000E+00  0.000000E+00
 2.900000E+01  1.000000E+00  0.000000E+00
 3.000000E+01  1.000000E+00  0.000000E+00
 3.100000E+01  1.000000E+00  0.000000E+00
 3.200000E+01  1.000000E+00  0.000000E+00
 3.300000E+01  1.000000E+00  0.000000E+00
 3.400000E+01  1.000000E+00  0.000000E+00
 3.500000E+01  1.000000E+00  0.000000E+00
 3.600000E+01  1.000000E+00  0.000000E+00
 3.700000E+01  1.000000E+00  0.000000E+00
 3.800000E+01  1.000000E+00  0.000000E+00
 3.900000E+01  1.000000E+00  0.000000E+00
 4.000000E+01  1.000000E+00  0.000000E+00
 4.100000E+01  1.000000E+00  0.000000E+00
 4.200000E+01  1.000000E+00  0.000000E+00
 4.300000E+01  1.000000E+00  0.000000E+00
 4.400000E+01  1.000000E+00  0.000000E+00
 4.500000E+01  1.000000E+00  0.000000E+00
 4.600000E+01  1.000000E+00  0.000000E+00
 4.700000E+01  1.000000E+00  0.000000E+00
 4.800000E+01  1.000000E+00  0.000000E+00
 4.900000E+01  1.000000E+00  0.000000E+00
 5.000000E+01  1.000000E+00  0.000000E+00
 0.000000E+00  2.000000E+00  0.000000E+00
 1.000000E+00  2.000000E+00  0.000000E+00
 2.000000E+00  2.000000E+00  0.000000E+00
 3.000000E+00  2.000000E+00  0.000000E+00
 4.000000E+00  2.000000E+00  0.000000E+00
 5.000000E+00  2.000000E+00  0.000000E+00
 6.000000E+00  2.000000E+00  0.000000E+00
 7.000000E+00  2.000000E+00  0.000000E+00
 8.000000E+00  2.000000E+00  0.000000E+00
 9.000000E+00  2.000000E+00  0.000000E+00
 1.000000E+01  2.000000E+00  0.000000E+00
 1.100000E+01  2.000000E+00  0.000000E+00
 1.200000E+01  2.000000E+00  0.000000E+00
 1.300000E+01  2.000000E+00  0.000000E+00
 1.400000E+01  2.000000E+00  0.000000E+00
 1.500000E+01  2.000000E+00  0.000000E+00
 1.600000E+01  2.000000E+00  0.000000E+00
 1.700000E+01  2.000000E+00  0.000000E+00
 1.800000E+01  2.000000E+00  0.000000E+00
 1.900000E+01  2.000000E+00  0.000000E+00
 2.000000E+01  2.000000E+00  0.000000E+00
 2.100000E+01  2.000000E+00  0.000000E+00
 2.200000E+01  2.000000E+00  0.000000E+00
 2.300000E+01  2.000000E+00  0.000000E+00
 2.400000E+01  2.000000E+00  0.000000E+00
 2.500000E+01  2.000000E+00  0.000000E+00
 2.600000E+01  2.000000E+00  0.000000E+00
 2.700000E+01  2.000000E+00  0.000000E+00
 2.800000E+01  2.000000E+00  0.000000E+00
 2.900000E+01  2.000000E+00  0.000000E+00
 3.000000E+01  2.000000E+00  0.000000E+00
 3.100000E+01  2.000000E+00  0.000000E+00
 3.200000E+01  2.000000E+00  0.000000E+00
 3.300000E+01  2.000000E+00  0.000000E+00
 3.400000E+01  2.000000E+00  0.000000E+00
 3.500000E+01  2.000000E+00  0.000000E+00
 3.600000E+01  2.000000E+00  0.000000E+00
 3.700000E+01  2.000000E+00  0.000000E+00
 3.800000E+01  2.000000E+00  0.000000E+00
 3.900000E+01  2.000000E+00  0.000000E+00
 4.000000E+01  2.000000E+00  0.000000E+00
 4.100000E+01  2.000000E+00  0.000000E+00
 4.200000E+01  2.000000E+00  0.000000E+00
 4.300000E+01  2.000000E+00  0.000000E+00
 4.400000E+01  2.000000E+00  0.000000E+00
 4.500000E+01  2.000000E+00  0.000000E+00
 4.600000E+01  2.000000E+00  0.000000E+00
 4.700000E+01  2.000000E+00  0.000000E+00
 4.800000E+01  2.000000E+00  0.000000E+00
 4.900000E+01  2.000000E+00  0.000000E+00
 5.000000E+01  2.000000E+00  0.000000E+00
 0.000000E+00  3.000000E+00  0.000000E+00
 1.000000E+00  3.000000E+00  0.000000E+00
 2.000000E+00  3.000000E+00  0.000000E+00
 3.000000E+00  3.000000E+00  0.000000E+00
 4.000000E+00  3.000000E+00  0.000000E+00
 5.000000E+00  3.000000E+00  0.000000E+00
 6.000000E+00  3.000000E+00  0.000000E+00
 7.000000E+00  3.000000E+00  0.000000E+00
 8.000000E+00  3.000000E+00  0.000000E+00
 9.000000E+00  3.000000E+00  0.000000E+00
 1.000000E+01  3.000000E+00  0.000000E+00
 1.100000E+01  3.000000E+00  0.000000E+00
 1.200000E+01  3.000000E+00  0.000000E+00
 1.300000E+01  3.000000E+00  0.000000E+00
 1.400000E+01  3.000000E+00  0.000000E+00
 1.500000E+01  3.000000E+00  0.000000E+00
 1.600000E+01  3.000000E+00  0.000000E+00
 1.700000E+01  3.000000E+00  0.000000E+00
 1.800000E+01  3.000000E+00  0.000000E+00
 1.900000E+01  3.000000E+00  0.000000E+00
 2.000000E+01  3.000000E+00  0.000000E+00
 2.100000E+01  3.000000E+00  0.000000E+00
 2.200000E+01  3.000000E+00  0.000000E+00
 2.300000E+01  3.000000E+00  0.000000E+00
 2.400000E+01  3.000000E+00  0.000000E+00
 2.500000E+01  3.000000E+00  0.000000E+00
 2.600000E+01  3.000000E+00  0.000000E+00
 2.700000E+01  3.000000E+00  0.000000E+00
 2.800000E+01  3.000000E+00  0.000000E+00
 2.900000E+01  3.000000E+00  0.000000E+00
 3.000000E+01  3.000000E+00  0.000000E+00
 3.100000E+01  3.000000E+00  0.000000E+00
 3.200000E+01  3.000000E+00  0.000000E+00
 3.300000E+01  3.000000E+00  0.000000E+00
 3.400000E+01  3.000000E+00  0.000000E+00
 3.500000E+01  3.000000E+00  0.000000E+00
 3.600000E+01  3.000000E+00  0.000000E+00
 3.700000E+01  3.000000E+00  0.000000E+00
 3.800000E+01  3.000000E+00  0.000000E+00
 3.900000E+01  3.000000E+00  0.000000E+00
 4.000000E+01  3.000000E+00  0.000000E+00
 4.100000E+01  3.000000E+00  0.000000E+00
 4.200000E+01  3.000000E+00  0.000000E+00
 4.300000E+01  3.000000E+00  0.000000E+00
 4.400000E+01  3.000000E+00  0.000000E+00
 4.500000E+01  3.000000E+00  0.000000E+00
 4.600000E+01  3.000000E+00  0.000000E+00
 4.700000E+01  3.000000E+00  0.000000E+00
 4.800000E+01  3.000000E+00  0.000000E+00
 4.900000E+01  3.000000E+00  0.000000E+00
 5.000000E+01  3.000000E+00  0.000000E+00
 0.000000E+00  4.000000E+00  0.000000E+00
 1.000000E+00  4.000000E+00  0.000000E+00
 2.000000E+00  4.000000E+00  0.000000E+00
 3.000000E+00  4.000000E+00  0.000000E+00
 4.000000E+00  4.000000E+00  0.000000E+00
 5.000000E+00  4.000000E+00  0.000000E+00
 6.000000E+00  4.000000E+00  0.000000E+00
 7.000000E+00  4.000000E+00  0.000000E+00
 8.000000E+00  4.000000E+00  0.000000E+00
 9.000000E+00  4.000000E+00  0.000000E+00
 1.000000E+01  4.000000E+00  0.000000E+00
 1.100000E+01  4.000000E+00  0.000000E+00
 1.200000E+01  4.000000E+00  0.000000E+00
 1.300000E+01  4.000000E+00  0.000000E+00
 1.400000E+01  4.000000E+00  0.000000E+00
 1.500000E+01  4.000000E+00  0.000000E+00
 1.600000E+01  4.000000E+00  0.000000E+00
 1.700000E+01  4.000000E+00  0.000000E+00
 1.800000E+01  4.000000E+00  0.000000E+00
 1.900000E+01  4.000000E+00  0.000000E+00
 2.000000E+01  4.000000E+00  0.000000E+00
 2.100000E+01  4.000000E+00  0.000000E+00
 2.200000E+01  4.000000E+00  0.000000E+00
 2.300000E+01  4.000000E+00  0.000000E+00
 2.400000E+01  4.000000E+00  0.000000E+00
 2.500000E+01  4.000000E+00  0.000000E+00
 2.600000E+01  4.000000E+00  0.000000E+00
 2.700000E+01  4.000000E+00  0.000000E+00
 2.800000E+01  4.000000E+00  0.000000E+00
 2.900000E+01  4.000000E+00  0.000000E+00
 3.000000E+01  4.000000E+00  0.000000E+00
[...]
POINT_DATA         2601
 SCALARS measuredDisp11 float  1                   
LOOKUP_TABLE default
 0.00000E+00
 0.00000E+00
 0.00000E+00
 0.00000E+00
 0.00000E+00
 0.00000E+00
 0.00000E+00
 0.00000E+00
 0.00000E+00
 0.00000E+00
 0.00000E+00
 0.00000E+00
 0.00000E+00
 0.00000E+00
 0.00000E+00
 0.00000E+00
 0.00000E+00
 0.00000E+00
 0.00000E+00
 0.00000E+00
 0.00000E+00
 0.00000E+00
 0.00000E+00
 0.00000E+00
 0.00000E+00
 0.00000E+00
 0.00000E+00
 0.00000E+00
 0.00000E+00
 0.00000E+00
 0.00000E+00
 0.00000E+00
 0.00000E+00
 0.00000E+00
 0.00000E+00
 0.00000E+00
 0.00000E+00
 0.00000E+00
 0.00000E+00
 0.00000E+00
 0.00000E+00
 0.00000E+00
 0.00000E+00
 0.00000E+00
 0.00000E+00
 0.00000E+00
 0.00000E+00
 0.00000E+00
 0.00000E+00
 0.00000E+00
 0.00000E+00
-2.55040E-02
-1.76740E-02
-1.47500E-02
-1.32620E-02
-1.23070E-02
-1.16110E-02
-1.10600E-02
-1.06020E-02
-1.02070E-02
-9.85300E-03
-9.52500E-03
-9.20800E-03
-8.88800E-03
-8.55000E-03
-8.18200E-03
-7.76900E-03
-7.30100E-03
-6.76600E-03
-6.15900E-03
-5.47300E-03
-4.71000E-03
-3.87200E-03
-2.96800E-03
-2.01100E-03
-1.01500E-03
-0.00000E+00
 1.01500E-03
 2.01100E-03
 2.96800E-03
 3.87200E-03
 4.71000E-03
 5.47300E-03
 6.15900E-03
 6.76600E-03
 7.30100E-03
 7.76900E-03
 8.18200E-03
 8.55000E-03
 8.88800E-03
 9.20800E-03
 9.52500E-03
 9.85300E-03
 1.02070E-02
 1.06020E-02
 1.10600E-02
 1.16110E-02
 1.23070E-02
 1.32620E-02
 1.47500E-02
 1.76740E-02
 2.55040E-02
-4.10320E-02
-3.50470E-02
-3.00170E-02
-2.68430E-02
-2.46630E-02
-2.30520E-02
-2.17860E-02
-2.07440E-02
-1.98550E-02
-1.90680E-02
-1.83460E-02
-1.76570E-02
-1.69720E-02
-1.62630E-02
-1.55040E-02
-1.46710E-02
-1.37420E-02
-1.27000E-02
-1.15290E-02
-1.02220E-02
-8.77900E-03
-7.20500E-03
-5.51600E-03
-3.73300E-03
-1.88300E-03
-0.00000E+00
 1.88300E-03
 3.73300E-03
 5.51600E-03
 7.20500E-03
 8.77900E-03
 1.02220E-02
 1.15290E-02
 1.27000E-02
 1.37420E-02
 1.46710E-02
 1.55040E-02
 1.62630E-02
 1.69720E-02
 1.76570E-02
 1.83460E-02
 1.90680E-02
 1.98550E-02
 2.07440E-02
 2.17860E-02
 2.30520E-02
 2.46630E-02
 2.68430E-02
 3.00170E-02
 3.50470E-02
 4.10320E-02
-5.41870E-02
-4.88130E-02
-4.37320E-02
-3.95810E-02
-3.64050E-02
-3.39210E-02
-3.19200E-02
-3.02560E-02
-2.88300E-02
-2.75690E-02
-2.64190E-02
-2.53290E-02
-2.42580E-02
-2.31660E-02
-2.20140E-02
-2.07700E-02
-1.94020E-02
-1.78850E-02
-1.62000E-02
-1.43370E-02
-1.22930E-02
-1.00760E-02
-7.70500E-03
-5.21000E-03
-2.62800E-03
-0.00000E+00
 2.62800E-03
 5.21000E-03
 7.70500E-03
 1.00760E-02
 1.22930E-02
 1.43370E-02
 1.62000E-02
 1.78850E-02
 1.94020E-02
 2.07700E-02
 2.20140E-02
 2.31660E-02
 2.42580E-02
 2.53290E-02
 2.64190E-02
 2.75690E-02
 2.88300E-02
 3.02560E-02
 3.19200E-02
 3.39210E-02
 3.64050E-02
 3.95810E-02
 4.37320E-02
 4.88130E-02
 5.41870E-02
-6.49790E-02
-6.01720E-02
-5.52460E-02
-5.07880E-02
-4.69960E-02
-4.38400E-02
-4.11980E-02
-3.89520E-02
-3.70030E-02
-3.52700E-02
-3.36870E-02
-3.21940E-02
-3.07370E-02
-2.92660E-02
-2.77340E-02
-2.60980E-02
-2.43220E-02
-2.23730E-02
-2.02280E-02
-1.78720E-02
-1.53030E-02
-1.25290E-02
-9.57200E-03
-6.46800E-03
-3.26100E-03
-0.00000E+00
 3.26100E-03
 6.46800E-03
 9.57200E-03
 1.25290E-02
 1.53030E-02
 1.78720E-02
 2.02280E-02
 2.23730E-02
 2.43220E-02
 2.60980E-02
 2.77340E-02
 2.92660E-02
 3.07370E-02
 3.21940E-02
 3.36870E-02
 3.52700E-02
 3.70030E-02
 3.89520E-02
 4.11980E-02
 4.38400E-02
 4.69960E-02
 5.07880E-02
 5.52460E-02
 6.01720E-02
 6.49790E-02
-7.39320E-02
-6.94970E-02
-6.47970E-02
-6.02690E-02
-5.61620E-02
-5.25530E-02
-4.94120E-02
-4.66710E-02
-4.42520E-02
-4.20810E-02
-4.00890E-02
-3.82100E-02
-3.63840E-02
-3.45530E-02
-3.26640E-02
-3.06660E-02
-2.85170E-02
-2.61810E-02
-2.36310E-02
-2.08490E-02
-1.78300E-02
-1.45820E-02
-1.11300E-02
-7.51400E-03
-3.78600E-03
-0.00000E+00
 3.78600E-03
 7.51400E-03
 1.11300E-02
 1.45820E-02
 1.78300E-02
 2.08490E-02
 2.36310E-02
 2.61810E-02
 2.85170E-02
 3.06660E-02
 3.26640E-02
 3.45530E-02
 3.63840E-02
 3.82100E-02
 4.00890E-02
 4.20810E-02
 4.42520E-02
 4.66710E-02
 4.94120E-02
 5.25530E-02
 5.61620E-02
 6.02690E-02
 6.47970E-02
 6.94970E-02
 7.39320E-02
-8.12720E-02
-7.70950E-02
-7.25870E-02
-6.80860E-02
-6.38290E-02
-5.99350E-02
-5.64330E-02
-5.33000E-02
-5.04850E-02
-4.79280E-02
-4.55660E-02
-4.33340E-02
-4.11680E-02
-3.90060E-02
-3.67880E-02
-3.44610E-02
-3.19780E-02
-2.93010E-02
-2.64000E-02
-2.32560E-02
-1.98620E-02
-1.62230E-02
-1.23670E-02
-8.33900E-03
-4.19700E-03
-0.00000E+00
 4.19700E-03
 8.33900E-03
 1.23670E-02
 1.62230E-02
 1.98620E-02
 2.32560E-02
 2.64000E-02
 2.93010E-02
 3.19780E-02
 3.44610E-02
 3.67880E-02
 3.90060E-02
 4.11680E-02
 4.33340E-02
 4.55660E-02
 4.79280E-02
 5.04850E-02
 5.33000E-02
 5.64330E-02
 5.99350E-02
 6.38290E-02
 6.80860E-02
 7.25870E-02
 7.70950E-02
 8.12720E-02
-8.71750E-02
-8.31650E-02
-7.88010E-02
-7.43540E-02
-7.00310E-02
-6.59620E-02
-6.22070E-02
-5.87750E-02
-5.56390E-02
-5.27570E-02
-5.00730E-02
-4.75270E-02
-4.50550E-02
-4.25930E-02
-4.00790E-02
-3.74540E-02
-3.46720E-02
-3.16930E-02
-2.84910E-02
-2.50470E-02
-2.13520E-02
-1.74070E-02
-1.32410E-02
-8.90800E-03
-4.47500E-03
-0.00000E+00
 4.47500E-03
 8.90800E-03
 1.32410E-02
 1.74070E-02
 2.13520E-02
 2.50470E-02
 2.84910E-02
 3.16930E-02
 3.46720E-02
 3.74540E-02
 4.00790E-02
 4.25930E-02
 4.50550E-02
 4.75270E-02
 5.00730E-02
 5.27570E-02
 5.56390E-02
 5.87750E-02
 6.22070E-02
 6.59620E-02
 7.00310E-02
 7.43540E-02
 7.88010E-02
 8.31650E-02
 8.71750E-02
-9.17760E-02
-8.78610E-02
-8.35940E-02
-7.91950E-02
-7.48440E-02
-7.06670E-02
-6.67360E-02
-6.30780E-02
-5.96880E-02
-5.65370E-02
-5.35780E-02
-5.07580E-02
-4.80140E-02
-4.52830E-02
-4.24990E-02
-3.96020E-02
-3.65430E-02
-3.32890E-02
-2.98230E-02
-2.61340E-02
-2.22130E-02
-1.80530E-02
-1.36770E-02
-9.15700E-03
-4.58100E-03
-0.00000E+00
 4.58100E-03
 9.15700E-03
 1.36770E-02
 1.80530E-02
 2.22130E-02
 2.61340E-02
 2.98230E-02
 3.32890E-02
 3.65430E-02
 3.96020E-02
 4.24990E-02
 4.52830E-02
 4.80140E-02
 5.07580E-02
 5.35780E-02
 5.65370E-02
 5.96880E-02
 6.30780E-02
 6.67360E-02
 7.06670E-02
 7.48440E-02
 7.91950E-02
 8.35940E-02
 8.78610E-02
 9.17760E-02
-9.51930E-02
-9.13160E-02
-8.71000E-02
-8.27320E-02
-7.83640E-02
-7.41140E-02
-7.00570E-02
-6.62280E-02
-6.26350E-02
-5.92600E-02
-5.60670E-02
-5.30060E-02
-5.00200E-02
-4.70420E-02
-4.40070E-02
-4.08500E-02
-3.75230E-02
-3.39970E-02
-3.02740E-02
-2.63740E-02
-2.22990E-02
-1.80240E-02
-1.35460E-02
-8.97200E-03
-4.44600E-03
-0.00000E+00
 4.44600E-03
 8.97200E-03
 1.35460E-02
 1.80240E-02
 2.22990E-02
 2.63740E-02
 3.02740E-02
 3.39970E-02
 3.75230E-02
 4.08500E-02
 4.40070E-02
 4.70420E-02
 5.00200E-02
 5.30060E-02
 5.60670E-02
 5.92600E-02
 6.26350E-02
 6.62280E-02
 7.00570E-02
 7.41140E-02
 7.83640E-02
 8.27320E-02
 8.71000E-02
 9.13160E-02
 9.51930E-02
-9.75370E-02
-9.36470E-02
-8.94440E-02
-8.50830E-02
-8.06970E-02
-7.63890E-02
-7.22330E-02
-6.82680E-02
-6.45080E-02
-6.09430E-02
-5.75450E-02
-5.42680E-02
-5.10560E-02
-4.78440E-02
-4.45630E-02
-4.11430E-02
-3.75300E-02
-3.37020E-02
-2.96820E-02
-2.55460E-02
-2.13710E-02
-1.70980E-02
-1.26430E-02
-8.17500E-03
-3.96100E-03
-0.00000E+00
 3.96100E-03
 8.17500E-03
 1.26430E-02
 1.70980E-02
 2.13710E-02
 2.55460E-02
 2.96820E-02
 3.37020E-02
 3.75300E-02
 4.11430E-02
 4.45630E-02
 4.78440E-02
 5.10560E-02
 5.42680E-02
 5.75450E-02
 6.09430E-02
 6.45080E-02
 6.82680E-02
 7.22330E-02
 7.63890E-02
 8.06970E-02
 8.50830E-02
 8.94440E-02
 9.36470E-02
 9.75370E-02
-9.89160E-02
-9.49720E-02
-9.07450E-02
-8.63660E-02
-8.19510E-02
-7.75890E-02
-7.33460E-02
-6.92640E-02
-6.53580E-02
-6.16250E-02
-5.80380E-02
-5.45560E-02
-5.11230E-02
-4.76720E-02
-4.41320E-02
-4.04290E-02
-3.64840E-02
-3.22770E-02
-2.78810E-02
-2.33710E-02
-1.89840E-02
-1.48970E-02
-1.06310E-02
-6.47800E-03
-3.07800E-03
-0.00000E+00
 3.07800E-03
 6.47800E-03
 1.06310E-02
 1.48970E-02
 1.89840E-02
 2.33710E-02
 2.78810E-02
 3.22770E-02
 3.64840E-02
 4.04290E-02
 4.41320E-02
 4.76720E-02
 5.11230E-02
 5.45560E-02
 5.80380E-02
 6.16250E-02
 6.53580E-02
 6.92640E-02
 7.33460E-02
 7.75890E-02
 8.19510E-02
 8.63660E-02
 9.07450E-02
 9.49720E-02
 9.89160E-02
-9.94410E-02
-9.54060E-02
-9.11230E-02
-8.67040E-02
-8.22440E-02
-7.78210E-02
-7.34950E-02
-6.93020E-02
-6.52600E-02
-6.13650E-02
-5.75940E-02
-5.39070E-02
-5.02420E-02
-4.65280E-02
-4.26860E-02
-3.86470E-02
-3.43310E-02
-2.95960E-02
-2.46320E-02
-1.97690E-02
-1.46950E-02
-1.00850E-02
-6.61400E-03
-4.13200E-03
-2.01300E-03
-0.00000E+00
 2.01300E-03
 4.13200E-03
 6.61400E-03
 1.00850E-02
 1.46950E-02
 1.97690E-02
 2.46320E-02
 2.95960E-02
 3.43310E-02
 3.86470E-02
 4.26860E-02
 4.65280E-02
 5.02420E-02
 5.39070E-02
 5.75940E-02
 6.13650E-02
 6.52600E-02
 6.93020E-02
 7.34950E-02
 7.78210E-02
 8.22440E-02
 8.67040E-02
 9.11230E-02
 9.54060E-02
 9.94410E-02
-9.92240E-02
-9.50680E-02
-9.07020E-02
-8.62190E-02
-8.16980E-02
-7.72050E-02
-7.27900E-02
-6.84850E-02
-6.43050E-02
-6.02480E-02
-5.62890E-02
-5.23860E-02
-4.84700E-02
-4.44520E-02
-4.02350E-02
-3.57310E-02
-3.09180E-02
-2.57070E-02
-1.97080E-02
-1.39860E-02
-9.64600E-03
-6.84700E-03
-4.77000E-03
-3.19200E-03
-1.62200E-03
-0.00000E+00
 1.62200E-03
 3.19200E-03
 4.77000E-03
 6.84700E-03
 9.64600E-03
 1.39860E-02
 1.97080E-02
 2.57070E-02
 3.09180E-02
 3.57310E-02
 4.02350E-02
 4.44520E-02
 4.84700E-02
 5.23860E-02
 5.62890E-02
 6.02480E-02
 6.43050E-02
 6.84850E-02
 7.27900E-02
 7.72050E-02
 8.16980E-02
 8.62190E-02
 9.07020E-02
 9.50680E-02
 9.92240E-02
-9.83860E-02
-9.40820E-02
-8.96110E-02
-8.50440E-02
-8.04470E-02
-7.58700E-02
-7.13570E-02
-6.69330E-02
-6.26100E-02
-5.83830E-02
-5.42270E-02
-5.00940E-02
-4.59050E-02
-4.15470E-02
-3.68610E-02
-3.17370E-02
-2.60260E-02
-1.96830E-02
-1.40790E-02
-1.03980E-02
-8.00900E-03
-6.29400E-03
-4.63900E-03
-3.02000E-03
-1.51200E-03
-0.00000E+00
 1.51200E-03
 3.02000E-03
 4.63900E-03
 6.29400E-03
 8.00900E-03
 1.03980E-02
 1.40790E-02
 1.96830E-02
 2.60260E-02
 3.17370E-02
 3.68610E-02
 4.15470E-02
 4.59050E-02
 5.00940E-02
 5.42270E-02
 5.83830E-02
 6.26100E-02
 6.69330E-02
 7.13570E-02
 7.58700E-02
 8.04470E-02
 8.50440E-02
 8.96110E-02
 9.40820E-02
 9.83860E-02
-9.70520E-02
-9.25800E-02
-8.79840E-02
-8.33170E-02
-7.86270E-02
-7.39550E-02
-6.93340E-02
-6.47840E-02
-6.03120E-02
-5.59090E-02
-5.15440E-02
-4.71640E-02
-4.26940E-02
-3.79760E-02
-3.28070E-02
-2.68900E-02
-2.01420E-02
-1.46370E-02
-1.17640E-02
-9.86500E-03
-8.11700E-03
-6.48700E-03
-4.86100E-03
-3.16700E-03
-1.55400E-03
-0.00000E+00
 1.55400E-03
 3.16700E-03
 4.86100E-03
 6.48700E-03
 8.11700E-03
 9.86500E-03
 1.17640E-02
 1.46370E-02
 2.01420E-02
 2.68900E-02
 3.28070E-02
 3.79760E-02
 4.26940E-02
 4.71640E-02
 5.15440E-02
 5.59090E-02
 6.03120E-02
 6.47840E-02
 6.93340E-02
 7.39550E-02
 7.86270E-02
 8.33170E-02
 8.79840E-02
 9.25800E-02
 9.70520E-02
-9.53510E-02
-9.06960E-02
-8.59610E-02
-8.11800E-02
-7.63860E-02
-7.16080E-02
-6.68700E-02
-6.21890E-02
-5.75660E-02
-5.29880E-02
-4.84160E-02
-4.37840E-02
-3.90020E-02
-3.39780E-02
-2.82920E-02
-2.16430E-02
-1.61440E-02
-1.33290E-02
-1.15020E-02
-9.91200E-03
-8.34200E-03
-6.66200E-03
-4.97600E-03
-3.28900E-03
-1.62700E-03
-0.00000E+00
 1.62700E-03
 3.28900E-03
 4.97600E-03
 6.66200E-03
 8.34200E-03
 9.91200E-03
 1.15020E-02
 1.33290E-02
 1.61440E-02
 2.16430E-02
 2.82920E-02
 3.39780E-02
 3.90020E-02
 4.37840E-02
 4.84160E-02
 5.29880E-02
 5.75660E-02
 6.21890E-02
 6.68700E-02
 7.16080E-02
 7.63860E-02
 8.11800E-02
 8.59610E-02
 9.06960E-02
 9.53510E-02
-9.34160E-02
-8.85690E-02
-8.36860E-02
-7.87820E-02
-7.38740E-02
-6.89830E-02
-6.41240E-02
-5.93100E-02
-5.45420E-02
-4.98050E-02
-4.50530E-02
-4.02110E-02
-3.51200E-02
-2.96470E-02
-2.36320E-02
-1.82160E-02
-1.52380E-02
-1.33870E-02
-1.16770E-02
-1.00320E-02
-8.41200E-03
-6.75800E-03
-5.06600E-03
-3.36700E-03
-1.67700E-03
-0.00000E+00
 1.67700E-03
 3.36700E-03
 5.06600E-03
 6.75800E-03
 8.41200E-03
 1.00320E-02
 1.16770E-02
 1.33870E-02
 1.52380E-02
 1.82160E-02
 2.36320E-02
 2.96470E-02
 3.51200E-02
 4.02110E-02
 4.50530E-02
 4.98050E-02
 5.45420E-02
 5.93100E-02
 6.41240E-02
 6.89830E-02
 7.38740E-02
 7.87820E-02
 8.36860E-02
 8.85690E-02
 9.34160E-02
-9.13820E-02
-8.63400E-02
-8.13040E-02
-7.62720E-02
-7.12460E-02
-6.62370E-02
-6.12550E-02
-5.63120E-02
-5.14130E-02
-4.65490E-02
-4.16760E-02
-3.67150E-02
-3.15610E-02
-2.58160E-02
-1.99660E-02
-1.69360E-02
-1.51640E-02
-1.34910E-02
-1.18110E-02
-1.01460E-02
-8.49200E-03
-6.82200E-03
-5.12700E-03
-3.41900E-03
-1.70800E-03
-0.00000E+00
 1.70800E-03
 3.41900E-03
 5.12700E-03
 6.82200E-03
 8.49200E-03
 1.01460E-02
 1.18110E-02
 1.34910E-02
 1.51640E-02
 1.69360E-02
 1.99660E-02
 2.58160E-02
 3.15610E-02
 3.67150E-02
 4.16760E-02
 4.65490E-02
 5.14130E-02
 5.63120E-02
 6.12550E-02
 6.62370E-02
 7.12460E-02
 7.62720E-02
 8.13040E-02
 8.63400E-02
 9.13820E-02
-8.93830E-02
-8.41480E-02
-7.89610E-02
-7.38000E-02
-6.86550E-02
-6.35270E-02
-5.84230E-02
-5.33580E-02
-4.83440E-02
-4.33910E-02
-3.84810E-02
-3.35230E-02
-2.84290E-02
-2.32050E-02
-1.90600E-02
-1.67400E-02
-1.51380E-02
-1.35500E-02
-1.19090E-02
-1.02460E-02
-8.57300E-03
-6.88400E-03
-5.17800E-03
-3.45700E-03
-1.73000E-03
-0.00000E+00
 1.73000E-03
 3.45700E-03
 5.17800E-03
 6.88400E-03
 8.57300E-03
 1.02460E-02
 1.19090E-02
 1.35500E-02
 1.51380E-02
 1.67400E-02
 1.90600E-02
 2.32050E-02
 2.84290E-02
 3.35230E-02
 3.84810E-02
 4.33910E-02
 4.83440E-02
 5.33580E-02
 5.84230E-02
 6.35270E-02
 6.86550E-02
 7.38000E-02
 7.89610E-02
 8.41480E-02
 8.93830E-02
-8.75470E-02
-8.21280E-02
-7.67960E-02
-7.15100E-02
-6.62490E-02
-6.10060E-02
-5.57860E-02
-5.06050E-02
-4.54900E-02
-4.04730E-02
-3.55850E-02
-3.08300E-02
-2.59140E-02
-2.12240E-02
-1.87360E-02
-1.70260E-02
-1.53090E-02
-1.36730E-02
-1.20220E-02
-1.03490E-02
-8.65700E-03
-6.95000E-03
-5.22700E-03
-3.49100E-03
-1.74800E-03
-0.00000E+00
 1.74800E-03
 3.49100E-03
 5.22700E-03
 6.95000E-03
 8.65700E-03
 1.03490E-02
 1.20220E-02
 1.36730E-02
 1.53090E-02
 1.70260E-02
 1.87360E-02
 2.12240E-02
 2.59140E-02
 3.08300E-02
 3.55850E-02
 4.04730E-02
 4.54900E-02
 5.06050E-02
 5.57860E-02
 6.10060E-02
 6.62490E-02
 7.15100E-02
 7.67960E-02
 8.21280E-02
 8.75470E-02
-8.59950E-02
-8.04080E-02
-7.49410E-02
-6.95400E-02
-6.41700E-02
-5.88200E-02
-5.34920E-02
-4.82070E-02
-4.30000E-02
-3.79260E-02
-3.30570E-02
-2.85070E-02
-2.42500E-02
-2.09250E-02
-1.88740E-02
-1.72510E-02
-1.55650E-02
-1.38580E-02
-1.21660E-02
-1.04650E-02
-8.75100E-03
-7.02200E-03
-5.28000E-03
-3.52700E-03
-1.76500E-03
-0.00000E+00
 1.76500E-03
 3.52700E-03
 5.28000E-03
 7.02200E-03
 8.75100E-03
 1.04650E-02
 1.21660E-02
 1.38580E-02
 1.55650E-02
 1.72510E-02
 1.88740E-02
 2.09250E-02
 2.42500E-02
 2.85070E-02
 3.30570E-02
 3.79260E-02
 4.30000E-02
 4.82070E-02
 5.34920E-02
 5.88200E-02
 6.41700E-02
 6.95400E-02
 7.49410E-02
 8.04080E-02
 8.59950E-02
-8.48360E-02
-7.91010E-02
-7.35160E-02
-6.80110E-02
-6.25460E-02
-5.71010E-02
-5.16790E-02
-4.63040E-02
-4.10240E-02
-3.59080E-02
-3.10540E-02
-2.65870E-02
-2.29250E-02
-2.08960E-02
-1.92430E-02
-1.74930E-02
-1.57760E-02
-1.40510E-02
-1.23240E-02
-1.05940E-02
-8.85400E-03
-7.10200E-03
-5.33800E-03
-3.56500E-03
-1.78400E-03
-0.00000E+00
 1.78400E-03
 3.56500E-03
 5.33800E-03
 7.10200E-03
 8.85400E-03
 1.05940E-02
 1.23240E-02
 1.40510E-02
 1.57760E-02
 1.74930E-02
 1.92430E-02
 2.08960E-02
 2.29250E-02
 2.65870E-02
 3.10540E-02
 3.59080E-02
 4.10240E-02
 4.63040E-02
 5.16790E-02
 5.71010E-02
 6.25460E-02
 6.80110E-02
 7.35160E-02
 7.91010E-02
 8.48360E-02
-8.41650E-02
-7.83070E-02
-7.26220E-02
-6.70310E-02
-6.14860E-02
-5.59620E-02
-5.04640E-02
-4.50200E-02
-3.96900E-02
-3.45730E-02
-2.98120E-02
-2.56450E-02
-2.26400E-02
-2.09030E-02
-1.93590E-02
-1.76870E-02
-1.59620E-02
-1.42290E-02
-1.24850E-02
-1.07300E-02
-8.96500E-03
-7.18800E-03
-5.40200E-03
-3.60700E-03
-1.80500E-03
-0.00000E+00
 1.80500E-03
 3.60700E-03
 5.40200E-03
 7.18800E-03
 8.96500E-03
 1.07300E-02
 1.24850E-02
 1.42290E-02
 1.59620E-02
 1.76870E-02
 1.93590E-02
 2.09030E-02
 2.26400E-02
 2.56450E-02
 2.98120E-02
 3.45730E-02
 3.96900E-02
 4.50200E-02
 5.04640E-02
 5.59620E-02
 6.14860E-02
 6.70310E-02
 7.26220E-02
 7.83070E-02
 8.41650E-02
-8.40560E-02
-7.81040E-02
-7.23420E-02
-6.66850E-02
-6.10780E-02
-5.54950E-02
-4.99390E-02
-4.44440E-02
-3.90830E-02
-3.39830E-02
-2.93500E-02
-2.55090E-02
-2.28430E-02
-2.10470E-02
-1.94300E-02
-1.78140E-02
-1.61310E-02
-1.44020E-02
-1.26460E-02
-1.08710E-02
-9.08200E-03
-7.28200E-03
-5.47100E-03
-3.65300E-03
-1.82800E-03
-0.00000E+00
 1.82800E-03
 3.65300E-03
 5.47100E-03
 7.28200E-03
 9.08200E-03
 1.08710E-02
 1.26460E-02
 1.44020E-02
 1.61310E-02
 1.78140E-02
 1.94300E-02
 2.10470E-02
 2.28430E-02
 2.55090E-02
 2.93500E-02
 3.39830E-02
 3.90830E-02
 4.44440E-02
 4.99390E-02
 5.54950E-02
 6.10780E-02
 6.66850E-02
 7.23420E-02
 7.81040E-02
 8.40560E-02
-8.45650E-02
-7.85490E-02
-7.27350E-02
-6.70340E-02
-6.13860E-02
-5.57630E-02
-5.01680E-02
-4.46340E-02
-3.92390E-02
-3.41220E-02
-2.95140E-02
-2.57390E-02
-2.31000E-02
-2.12720E-02
-1.96220E-02
-1.80010E-02
-1.63260E-02
-1.45910E-02
-1.28170E-02
-1.10210E-02
-9.20800E-03
-7.38300E-03
-5.54700E-03
-3.70300E-03
-1.85300E-03
-0.00000E+00
 1.85300E-03
 3.70300E-03
 5.54700E-03
 7.38300E-03
 9.20800E-03
 1.10210E-02
 1.28170E-02
 1.45910E-02
 1.63260E-02
 1.80010E-02
 1.96220E-02
 2.12720E-02
 2.31000E-02
 2.57390E-02
 2.95140E-02
 3.41220E-02
 3.92390E-02
 4.46340E-02
 5.01680E-02
 5.57630E-02
 6.13860E-02
 6.70340E-02
 7.27350E-02
 7.85490E-02
 8.45650E-02
-8.57230E-02
-7.96760E-02
-7.38360E-02
-6.81120E-02
-6.24450E-02
-5.68030E-02
-5.11860E-02
-4.56220E-02
-4.01820E-02
-3.49860E-02
-3.02340E-02
-2.62510E-02
-2.34360E-02
-2.15830E-02
-1.99380E-02
-1.82950E-02
-1.65770E-02
-1.48060E-02
-1.30040E-02
-1.11810E-02
-9.34300E-03
-7.49200E-03
-5.63000E-03
-3.75900E-03
-1.88100E-03
-0.00000E+00
 1.88100E-03
 3.75900E-03
 5.63000E-03
 7.49200E-03
 9.34300E-03
 1.11810E-02
 1.30040E-02
 1.48060E-02
 1.65770E-02
 1.82950E-02
 1.99380E-02
 2.15830E-02
 2.34360E-02
 2.62510E-02
 3.02340E-02
 3.49860E-02
 4.01820E-02
 4.56220E-02
 5.11860E-02
 5.68030E-02
 6.24450E-02
 6.81120E-02
 7.38360E-02
 7.96760E-02
 8.57230E-02
-8.75390E-02
-8.14940E-02
-7.56540E-02
-6.99300E-02
-6.42640E-02
-5.86240E-02
-5.30040E-02
-4.74250E-02
-4.19380E-02
-3.66330E-02
-3.16430E-02
-2.71910E-02
-2.38660E-02
-2.20080E-02
-2.04070E-02
-1.86700E-02
-1.68640E-02
-1.50430E-02
-1.32050E-02
-1.13540E-02
-9.48900E-03
-7.61100E-03
-5.72100E-03
-3.82000E-03
-1.91200E-03
-0.00000E+00
 1.91200E-03
 3.82000E-03
 5.72100E-03
 7.61100E-03
 9.48900E-03
 1.13540E-02
 1.32050E-02
 1.50430E-02
 1.68640E-02
 1.86700E-02
 2.04070E-02
 2.20080E-02
 2.38660E-02
 2.71910E-02
 3.16430E-02
 3.66330E-02
 4.19380E-02
 4.74250E-02
 5.30040E-02
 5.86240E-02
 6.42640E-02
 6.99300E-02
 7.56540E-02
 8.14940E-02
 8.75390E-02
-9.00000E-02
-8.39880E-02
-7.81730E-02
-7.24710E-02
-6.68270E-02
-6.12090E-02
-5.56060E-02
-5.00300E-02
-4.45190E-02
-3.91300E-02
-3.39500E-02
-2.90860E-02
-2.49210E-02
-2.26740E-02
-2.08820E-02
-1.90000E-02
-1.71500E-02
-1.52880E-02
-1.34190E-02
-1.15420E-02
-9.65100E-03
-7.74400E-03
-5.82300E-03
-3.88900E-03
-1.94700E-03
-0.00000E+00
 1.94700E-03
 3.88900E-03
 5.82300E-03
 7.74400E-03
 9.65100E-03
 1.15420E-02
 1.34190E-02
 1.52880E-02
 1.71500E-02
 1.90000E-02
 2.08820E-02
 2.26740E-02
 2.49210E-02
 2.90860E-02
 3.39500E-02
 3.91300E-02
 4.45190E-02
 5.00300E-02
 5.56060E-02
 6.12090E-02
 6.68270E-02
 7.24710E-02
 7.81730E-02
 8.39880E-02
 9.00000E-02
-9.30720E-02
-8.71220E-02
-8.13540E-02
-7.56950E-02
-7.00920E-02
-6.45140E-02
-5.89470E-02
-5.33970E-02
-4.78840E-02
-4.24510E-02
-3.71590E-02
-3.21140E-02
-2.72500E-02
-2.33780E-02
-2.10710E-02
-1.92870E-02
-1.74260E-02
-1.55340E-02
-1.36500E-02
-1.17510E-02
-9.83300E-03
-7.89500E-03
-5.93800E-03
-3.96700E-03
-1.98600E-03
-0.00000E+00
 1.98600E-03
 3.96700E-03
 5.93800E-03
 7.89500E-03
 9.83300E-03
 1.17510E-02
 1.36500E-02
 1.55340E-02
 1.74260E-02
 1.92870E-02
 2.10710E-02
 2.33780E-02
 2.72500E-02
 3.21140E-02
 3.71590E-02
 4.24510E-02
 4.78840E-02
 5.33970E-02
 5.89470E-02
 6.45140E-02
 7.00920E-02
 7.56950E-02
 8.13540E-02
 8.71220E-02
 9.30720E-02
-9.67020E-02