# vtk DataFile Version 2.0
Output of NLACE
ASCII
DATASET UNSTRUCTURED_GRID
POINTS           72 FLOAT
 1.217391E+00 -6.180602E+00  0.000000E+00
 4.869565E+00 -6.180602E+00  0.000000E+00
 8.521739E+00 -6.180602E+00  0.000000E+00
 1.217391E+01 -6.180602E+00  0.000000E+00
 1.582609E+01 -6.180602E+00  0.000000E+00
 1.947826E+01 -6.180602E+00  0.000000E+00
 2.313043E+01 -6.180602E+00  0.000000E+00
 2.678261E+01 -6.180602E+00  0.000000E+00
 1.217391E+00 -1.081605E+01  0.000000E+00
 4.869565E+00 -1.081605E+01  0.000000E+00
 8.521739E+00 -1.081605E+01  0.000000E+00
 1.217391E+01 -1.081605E+01  0.000000E+00
 1.582609E+01 -1.081605E+01  0.000000E+00
 1.947826E+01 -1.081605E+01  0.000000E+00
 2.313043E+01 -1.081605E+01  0.000000E+00
 2.678261E+01 -1.081605E+01  0.000000E+00
 1.217391E+00 -1.545151E+01  0.000000E+00
 4.869565E+00 -1.545151E+01  0.000000E+00
 8.521739E+00 -1.545151E+01  0.000000E+00
 1.217391E+01 -1.545151E+01  0.000000E+00
 1.582609E+01 -1.545151E+01  0.000000E+00
 1.947826E+01 -1.545151E+01  0.000000E+00
 2.313043E+01 -1.545151E+01  0.000000E+00
 2.678261E+01 -1.545151E+01  0.000000E+00
 1.217391E+00 -2.008696E+01  0.000000E+00
 4.869565E+00 -2.008696E+01  0.000000E+00
 8.521739E+00 -2.008696E+01  0.000000E+00
 1.217391E+01 -2.008696E+01  0.000000E+00
 1.582609E+01 -2.008696E+01  0.000000E+00
 1.947826E+01 -2.008696E+01  0.000000E+00
 2.313043E+01 -2.008696E+01  0.000000E+00
 2.678261E+01 -2.008696E+01  0.000000E+00
 1.217391E+00 -2.472241E+01  0.000000E+00
 4.869565E+00 -2.472241E+01  0.000000E+00
 8.521739E+00 -2.472241E+01  0.000000E+00
 1.217391E+01 -2.472241E+01  0.000000E+00
 1.582609E+01 -2.472241E+01  0.000000E+00
 1.947826E+01 -2.472241E+01  0.000000E+00
 2.313043E+01 -2.472241E+01  0.000000E+00
 2.678261E+01 -2.472241E+01  0.000000E+00
 1.217391E+00 -2.935786E+01  0.000000E+00
 4.869565E+00 -2.935786E+01  0.000000E+00
 8.521739E+00 -2.935786E+01  0.000000E+00
 1.217391E+01 -2.935786E+01  0.000000E+00
 1.582609E+01 -2.935786E+01  0.000000E+00
 1.947826E+01 -2.935786E+01  0.000000E+00
 2.313043E+01 -2.935786E+01  0.000000E+00
 2.678261E+01 -2.935786E+01  0.000000E+00
 1.217391E+00 -3.399331E+01  0.000000E+00
 4.869565E+00 -3.399331E+01  0.000000E+00
 8.521739E+00 -3.399331E+01  0.000000E+00
 1.217391E+01 -3.399331E+01  0.000000E+00
 1.582609E+01 -3.399331E+01  0.000000E+00
 1.947826E+01 -3.399331E+01  0.000000E+00
 2.313043E+01 -3.399331E+01  0.000000E+00
 2.678261E+01 -3.399331E+01  0.000000E+00
 1.217391E+00 -3.862876E+01  0.000000E+00
 4.869565E+00 -3.862876E+01  0.000000E+00
 8.521739E+00 -3.862876E+01  0.000000E+00
 1.217391E+01 -3.862876E+01  0.000000E+00
 1.582609E+01 -3.862876E+01  0.000000E+00
 1.947826E+01 -3.862876E+01  0.000000E+00
 2.313043E+01 -3.862876E+01  0.000000E+00
 2.678261E+01 -3.862876E+01  0.000000E+00
 1.217391E+00 -4.326421E+01  0.000000E+00
 4.869565E+00 -4.326421E+01  0.000000E+00
 8.521739E+00 -4.326421E+01  0.000000E+00
 1.217391E+01 -4.326421E+01  0.000000E+00
 1.582609E+01 -4.326421E+01  0.000000E+00
 1.947826E+01 -4.326421E+01  0.000000E+00
 2.313043E+01 -4.326421E+01  0.000000E+00
 2.678261E+01 -4.326421E+01  0.000000E+00
CELLS           56         280
4    8    9    1    0
4    9   10    2    1
4   10   11    3    2
4   11   12    4    3
4   12   13    5    4
4   13   14    6    5
4   14   15    7    6
4   16   17    9    8
4   17   18   10    9
4   18   19   11   10
4   19   20   12   11
4   20   21   13   12
4   21   22   14   13
4   22   23   15   14
4   24   25   17   16
4   25   26   18   17
4   26   27   19   18
4   27   28   20   19
4   28   29   21   20
4   29   30   22   21
4   30   31   23   22
4   32   33   25   24
4   33   34   26   25
4   34   35   27   26
4   35   36   28   27
4   36   37   29   28
4   37   38   30   29
4   38   39   31   30
4   40   41   33   32
4   41   42   34   33
4   42   43   35   34
4   43   44   36   35
4   44   45   37   36
4   45   46   38   37
4   46   47   39   38
4   48   49   41   40
4   49   50   42   41
4   50   51   43   42
4   51   52   44   43
4   52   53   45   44
4   53   54   46   45
4   54   55   47   46
4   56   57   49   48
4   57   58   50   49
4   58   59   51   50
4   59   60   52   51
4   60   61   53   52
4   61   62   54   53
4   62   63   55   54
4   64   65   57   56
4   65   66   58   57
4   66   67   59   58
4   67   68   60   59
4   68   69   61   60
4   69   70   62   61
4   70   71   63   62
CELL_TYPES           56
9
9
9
9
9
9
9
9
9
9
9
9
9
9
9
9
9
9
9
9
9
9
9
9
9
9
9
9
9
9
9
9
9
9
9
9
9
9
9
9
9
9
9
9
9
9
9
9
9
9
9
9
9
9
9
9
POINT_DATA           72
 SCALARS measuredDisp11 float  1                   
LOOKUP_TABLE default
-2.67989E-01
-2.46973E-01
-1.95923E-01
-1.74907E-01
-1.54674E-01
-1.33637E-01
-1.00305E-01
-7.82600E-02
-2.53702E-01
-2.67888E-01
-2.08877E-01
-1.65147E-01
-1.52875E-01
-1.12623E-01
-9.26820E-02
-6.43330E-02
-2.60484E-01
-2.48154E-01
-2.16792E-01
-1.72122E-01
-1.40214E-01
-9.11570E-02
-7.78130E-02
-5.73260E-02
-2.55154E-01
-2.24561E-01
-1.96736E-01
-1.62661E-01
-1.23483E-01
-9.87930E-02
-7.31570E-02
-2.42640E-02
-2.55067E-01
-2.26025E-01
-1.76470E-01
-1.39220E-01
-1.26990E-01
-1.07579E-01
-4.15490E-02
-2.23700E-02
-2.51241E-01
-2.20382E-01
-1.36901E-01
-1.35583E-01
-1.43811E-01
-1.15614E-01
-4.81670E-02
-6.79350E-02
-2.26165E-01
-1.69149E-01
-1.75962E-01
-1.15833E-01
-8.50490E-02
-4.70220E-02
-4.42840E-02
 4.42900E-03
-2.20632E-01
-1.80898E-01
-1.95286E-01
-1.48238E-01
-4.62980E-02
-4.27460E-02
-4.78090E-02
 7.52890E-02
-1.59363E-01
-1.86753E-01
-1.51910E-01
-9.99910E-02
-8.52860E-02
 4.74000E-04
 2.29850E-02
-9.93000E-03
 SCALARS measuredDisp12 float  1                   
LOOKUP_TABLE default
 7.62760E-02
 9.05160E-02
 9.65400E-02
 9.75210E-02
 1.07007E-01
 1.16125E-01
 1.24220E-01
 1.33036E-01
 1.50347E-01
 1.56859E-01
 1.71054E-01
 1.74910E-01
 1.85429E-01
 1.83154E-01
 1.98783E-01
 2.03755E-01
 2.27751E-01
 2.31966E-01
 2.41174E-01
 2.51949E-01
 2.60039E-01
 2.74770E-01
 2.74524E-01
 2.83302E-01
 3.04526E-01
 3.06903E-01
 3.15827E-01
 3.31760E-01
 3.47303E-01
 3.48494E-01
 3.54381E-01
 3.57426E-01
 3.77952E-01
 3.86016E-01
 4.01900E-01
 4.25285E-01
 4.46234E-01
 4.34334E-01
 4.33420E-01
 4.41244E-01
 4.59827E-01
 4.65554E-01
 4.82622E-01
 5.09756E-01
 5.18230E-01
 5.17164E-01
 5.18083E-01
 5.24532E-01
 5.42429E-01
 5.52108E-01
 5.60101E-01
 5.57543E-01
 5.70588E-01
 5.74858E-01
 5.95674E-01
 6.06231E-01
 6.29911E-01
 6.39975E-01
 6.47903E-01
 6.32560E-01
 6.37402E-01
 6.67059E-01
 6.83297E-01
 6.95588E-01
 7.16925E-01
 7.24626E-01
 7.38487E-01
 7.32637E-01
 7.38117E-01
 7.58368E-01
 7.63826E-01
 7.79255E-01
 SCALARS predictedDisp11 float  1                  
LOOKUP_TABLE default
-4.05066E-01
-3.75333E-01
-3.44918E-01
-3.14201E-01
-2.83879E-01
-2.53954E-01
-2.23386E-01
-1.94092E-01
-3.92297E-01
-3.63699E-01
-3.35868E-01
-3.05974E-01
-2.74621E-01
-2.43450E-01
-2.12805E-01
-1.82498E-01
-3.86404E-01
-3.56554E-01
-3.27663E-01
-2.97301E-01
-2.64274E-01
-2.30435E-01
-1.98510E-01
-1.67873E-01
-3.82262E-01
-3.52578E-01
-3.21857E-01
-2.87978E-01
-2.51008E-01
-2.15607E-01
-1.83506E-01
-1.52591E-01
-3.69045E-01
-3.38239E-01
-3.06499E-01
-2.73519E-01
-2.40915E-01
-2.09400E-01
-1.78358E-01
-1.45925E-01
-3.51357E-01
-3.17110E-01
-2.83824E-01
-2.56076E-01
-2.32319E-01
-2.07157E-01
-1.76765E-01
-1.43555E-01
-3.40243E-01
-3.05296E-01
-2.71178E-01
-2.44066E-01
-2.20897E-01
-1.95861E-01
-1.64977E-01
-1.31217E-01
-3.24348E-01
-2.89880E-01
-2.61040E-01
-2.34050E-01
-2.09081E-01
-1.82618E-01
-1.54658E-01
-1.20928E-01
-2.52689E-01
-2.40478E-01
-2.28268E-01
-2.16058E-01
-2.03848E-01
-1.91638E-01
-1.79427E-01
-1.67217E-01
 SCALARS predictedDisp12 float  1                  
LOOKUP_TABLE default
 7.62760E-02
 9.05160E-02
 9.65400E-02
 9.75210E-02
 1.07007E-01
 1.16125E-01
 1.24220E-01
 1.33036E-01
 1.50347E-01
 1.61194E-01
 1.69677E-01
 1.75935E-01
 1.82657E-01
 1.90727E-01
 1.99860E-01
 2.03755E-01
 2.27751E-01
 2.31237E-01
 2.39409E-01
 2.48563E-01
 2.58508E-01
 2.67767E-01
 2.74554E-01
 2.83302E-01
 3.04526E-01
 3.06962E-01
 3.16915E-01
 3.33056E-01
 3.47518E-01
 3.51455E-01
 3.53267E-01
 3.57426E-01
 3.77952E-01
 3.85606E-01
 4.04052E-01
 4.31740E-01
 4.45210E-01
 4.40497E-01
 4.34405E-01
 4.41244E-01
 4.59827E-01
 4.66068E-01
 4.82714E-01
 5.01934E-01
 5.12145E-01
 5.13797E-01
 5.15157E-01
 5.24532E-01
 5.42429E-01
 5.52738E-01
 5.57134E-01
 5.60595E-01
 5.68188E-01
 5.80301E-01
 5.96091E-01
 6.06231E-01
 6.29911E-01
 6.43719E-01
 6.45222E-01
 6.36999E-01
 6.42283E-01
 6.64256E-01
 6.84030E-01
 6.95588E-01
 7.16925E-01
 7.24626E-01
 7.38487E-01
 7.32637E-01
 7.38117E-01
 7.58368E-01
 7.63826E-01
 7.79255E-01
 SCALARS dual11 float  1                           
LOOKUP_TABLE default
-6.43202E-04
-2.12635E-03
-2.86862E-03
-8.78578E-04
 2.35197E-03
 2.80288E-03
 8.30603E-04
 2.21220E-04
-1.20082E-03
-1.47570E-03
-1.57130E-03
-7.44935E-04
 4.49805E-04
 1.57140E-03
 1.91697E-03
 1.63716E-03
-2.41921E-05
 7.77715E-04
 1.07721E-03
 9.86145E-05
-9.02860E-04
-6.82655E-04
 4.23365E-04
 9.13003E-04
 1.24856E-03
 1.57716E-03
 1.44330E-03
 2.40645E-04
 2.25603E-05
-5.05533E-04
-1.28964E-03
-1.03348E-03
-3.68496E-04
-8.47339E-04
-1.44425E-03
-6.02834E-04
 9.02192E-04
 1.49335E-03
 1.45231E-03
 1.27577E-03
-4.14207E-04
-7.89706E-04
-2.06151E-04
 8.52470E-04
 6.91214E-04
 3.16529E-04
 3.53385E-04
 3.63908E-04
 1.94942E-03
 1.76699E-03
 2.67829E-03
 1.92265E-03
-1.03651E-03
-2.36179E-03
-2.14274E-03
-2.27859E-03
 9.44848E-04
 1.55554E-03
 1.08929E-03
-2.64220E-05
-7.86627E-04
-1.15481E-03
-8.86018E-04
-8.08824E-04
 0.00000E+00
 0.00000E+00
 0.00000E+00
 0.00000E+00
 0.00000E+00
 0.00000E+00
 0.00000E+00
 0.00000E+00
 SCALARS dual12 float  1                           
LOOKUP_TABLE default
 0.00000E+00
 0.00000E+00
 0.00000E+00
 0.00000E+00
 0.00000E+00
 0.00000E+00
 0.00000E+00
 0.00000E+00
 0.00000E+00
-3.58510E-03
 2.04485E-03
 4.31714E-03
 4.98220E-03
-3.14639E-03
-2.24497E-03
 0.00000E+00
 0.00000E+00
-1.22418E-03
 2.32045E-03
 5.77804E-03
 6.00080E-03
 3.99473E-03
-2.88508E-04
 0.00000E+00
 0.00000E+00
-3.85332E-04
-1.34289E-03
-1.71442E-04
 2.68586E-03
-1.03412E-03
 2.36795E-04
 0.00000E+00
 0.00000E+00
-8.47828E-04
-3.12553E-03
-9.72923E-04
 4.55047E-03
-3.44714E-03
-8.61761E-04
 0.00000E+00
 0.00000E+00
-1.67863E-03
 1.01480E-03
 6.65342E-03
 7.47431E-03
 1.56497E-03
 1.52013E-03
 0.00000E+00
 0.00000E+00
-2.19544E-03
 4.00492E-03
 1.90246E-03
 2.98647E-03
-1.59460E-03
-4.78883E-04
 0.00000E+00
 0.00000E+00
-3.92529E-03
 3.02960E-03
-4.38407E-03
-4.61121E-03
 2.27020E-04
-9.31603E-04
 0.00000E+00
 0.00000E+00
 0.00000E+00
 0.00000E+00
 0.00000E+00
 0.00000E+00
 0.00000E+00
 0.00000E+00
 0.00000E+00
 SCALARS property1 float  1                        
LOOKUP_TABLE default
 0.00000E+00
 0.00000E+00
 0.00000E+00
 0.00000E+00
 0.00000E+00
 0.00000E+00
 0.00000E+00
 0.00000E+00
 0.00000E+00
 0.00000E+00
 0.00000E+00
 0.00000E+00
 0.00000E+00
 0.00000E+00
 0.00000E+00
 0.00000E+00
 0.00000E+00
 0.00000E+00
 0.00000E+00
 0.00000E+00
 0.00000E+00
 0.00000E+00
 0.00000E+00
 0.00000E+00
 0.00000E+00
 0.00000E+00
 0.00000E+00
 0.00000E+00
 0.00000E+00
 0.00000E+00
 0.00000E+00
 0.00000E+00
 0.00000E+00
 0.00000E+00
 0.00000E+00
 0.00000E+00
 0.00000E+00
 0.00000E+00
 0.00000E+00
 0.00000E+00
 0.00000E+00
 0.00000E+00
 0.00000E+00
 0.00000E+00
 0.00000E+00
 0.00000E+00
 0.00000E+00
 0.00000E+00
 0.00000E+00
 0.00000E+00
 0.00000E+00
 0.00000E+00
 0.00000E+00
 0.00000E+00
 0.00000E+00
 0.00000E+00
 0.00000E+00
 0.00000E+00
 0.00000E+00
 0.00000E+00
 0.00000E+00
 0.00000E+00
 0.00000E+00
 0.00000E+00
 0.00000E+00
 0.00000E+00
 0.00000E+00
 0.00000E+00
 0.00000E+00
 0.00000E+00
 0.00000E+00
 0.00000E+00
 SCALARS property2 float  1                        
LOOKUP_TABLE default
 1.14724E+00
 1.47762E+00
 1.44535E+00
 1.29709E+00
 1.27878E+00
 1.46908E+00
 1.38024E+00
 1.11599E+00
 1.20163E+00
 1.71140E+00
 1.79072E+00
 1.57388E+00
 1.45835E+00
 1.53957E+00
 1.52870E+00
 1.16592E+00
 1.14578E+00
 1.48704E+00
 1.72588E+00
 1.56156E+00
 1.36347E+00
 1.41357E+00
 1.42667E+00
 1.15587E+00
 1.12441E+00
 1.35907E+00
 1.39149E+00
 1.07943E+00
 1.04150E+00
 1.31515E+00
 1.36987E+00
 1.15172E+00
 1.11763E+00
 1.27060E+00
 1.22366E+00
 1.15109E+00
 1.21014E+00
 1.21221E+00
 1.13425E+00
 1.08864E+00
 1.06730E+00
 1.13136E+00
 1.55230E+00
 2.36105E+00
 2.54242E+00
 1.88779E+00
 1.20765E+00
 1.06594E+00
 1.01135E+00
 1.02100E+00
 1.18677E+00
 2.07979E+00
 2.22931E+00
 1.41558E+00
 1.04520E+00
 1.01142E+00
 1.00013E+00
 1.00199E+00
 1.03759E+00
 1.00392E+00
 1.00373E+00
 1.00276E+00
 1.00196E+00
 1.00690E+00
 1.00000E+00
 1.00003E+00
 1.00246E+00
 1.00000E+00
 1.00000E+00
 1.00145E+00
 1.00098E+00
 1.00459E+00
 SCALARS gradient1 float  1                        
LOOKUP_TABLE default
 0.00000E+00
 0.00000E+00
 0.00000E+00
 0.00000E+00
 0.00000E+00
 0.00000E+00
 0.00000E+00
 0.00000E+00
 0.00000E+00
 0.00000E+00
 0.00000E+00
 0.00000E+00
 0.00000E+00
 0.00000E+00
 0.00000E+00
 0.00000E+00
 0.00000E+00
 0.00000E+00
 0.00000E+00
 0.00000E+00
 0.00000E+00
 0.00000E+00
 0.00000E+00
 0.00000E+00
 0.00000E+00
 0.00000E+00
 0.00000E+00
 0.00000E+00
 0.00000E+00
 0.00000E+00
 0.00000E+00
 0.00000E+00
 0.00000E+00
 0.00000E+00
 0.00000E+00
 0.00000E+00
 0.00000E+00
 0.00000E+00
 0.00000E+00
 0.00000E+00
 0.00000E+00
 0.00000E+00
 0.00000E+00
 0.00000E+00
 0.00000E+00
 0.00000E+00
 0.00000E+00
 0.00000E+00
 0.00000E+00
 0.00000E+00
 0.00000E+00
 0.00000E+00
 0.00000E+00
 0.00000E+00
 0.00000E+00
 0.00000E+00
 0.00000E+00
 0.00000E+00
 0.00000E+00
 0.00000E+00
 0.00000E+00
 0.00000E+00
 0.00000E+00
 0.00000E+00
 0.00000E+00
 0.00000E+00
 0.00000E+00
 0.00000E+00
 0.00000E+00
 0.00000E+00
 0.00000E+00
 0.00000E+00
 SCALARS gradient2 float  1                        
LOOKUP_TABLE default
-6.50947E-05
-1.75330E-04
 1.22384E-04
 3.49879E-04
 2.90099E-04
-1.40318E-04
-1.85460E-04
-4.58447E-05
-4.09413E-05
-9.81951E-06
 2.53533E-04
 4.86489E-04
 4.98084E-04
 3.80617E-04
 7.69919E-05
-2.81106E-05
 2.20907E-05
 1.37224E-04
-1.92148E-04
-3.97532E-04
-2.52736E-04
 1.03499E-04
 2.00179E-04
 9.82996E-06
-1.92653E-05
-4.74391E-05
-4.19434E-04
-5.87681E-04
-3.57214E-04
-5.10480E-04
-1.30412E-04
-2.90053E-05
-3.61392E-05
-3.17937E-05
 2.05216E-04
 4.52184E-04
 4.45112E-04
 2.23894E-04
 9.40409E-05
-2.83204E-06
-2.96135E-05
 3.32982E-05
 4.86239E-04
 3.43312E-04
 1.10538E-04
 1.58058E-04
 7.20512E-05
-6.52600E-06
-4.87045E-05
-1.58964E-04
-1.02012E-04
-7.28496E-04
-7.90906E-04
-2.39455E-04
-1.71757E-04
-5.46340E-05
 4.10169E-05
 1.36350E-05
-2.44753E-04
-3.26333E-05
 6.07784E-06
 1.11626E-04
 1.27949E-05
 1.10519E-05
 6.69922E-05
 1.98902E-04
-7.67538E-05
 4.47960E-04
 5.08761E-04
 9.54096E-05
 2.30289E-05
 1.99935E-05
CELL_DATA          56
SCALARS elemDataMatch  float  1
LOOKUP_TABLE default
 1.76710E-05
 1.38405E-05
 1.44418E-06
 5.54289E-06
 4.14236E-05
 6.27058E-05
 1.09160E-06
 1.51994E-05
 1.46698E-05
 2.11410E-05
 2.78054E-05
 5.76223E-05
 5.53433E-05
 1.12242E-06
 4.62257E-07
 3.54856E-06
 1.46106E-05
 1.40335E-05
 4.46459E-05
 3.64149E-05
 1.13664E-06
 1.38351E-07
 6.88905E-06
 7.53037E-05
 4.35309E-05
 5.58220E-05
 6.29352E-05
 1.04735E-06
 2.08531E-07
 4.47425E-06
 5.85470E-05
 1.14765E-04
 6.58605E-05
 3.80567E-05
 6.25213E-06
 9.26927E-07
 6.55285E-06
 5.37384E-05
 1.35805E-04
 7.04754E-05
 3.16054E-05
 7.06658E-06
 1.57717E-05
 2.10755E-05
 3.28074E-05
 7.23312E-05
 2.82116E-05
 2.33865E-05
 9.55360E-07
 1.31804E-05
 1.05010E-05
 1.41011E-05
 6.13186E-05
 1.69280E-05
 5.96488E-06
 5.04958E-07
SCALARS elemRegul  float  1
LOOKUP_TABLE default
 1.01320E-05
 5.36826E-06
 7.09588E-06
 4.49150E-06
 3.93907E-06
 2.36231E-06
 7.50765E-06
 1.02293E-05
 4.62918E-06
 4.48163E-06
 3.79045E-06
 2.53385E-06
 2.08834E-06
 7.42955E-06
 6.83586E-06
 5.41957E-06
 9.32230E-06
 7.90476E-06
 5.53642E-06
 1.64240E-06
 5.70048E-06
 4.59646E-06
 2.40646E-06
 4.73606E-06
 2.30359E-06
 3.63327E-06
 3.23080E-06
 4.22438E-06
 3.09634E-06
 5.54642E-06
 1.73870E-05
 2.33926E-05
 2.02919E-05
 1.16896E-05
 2.28196E-06
 1.77681E-06
 8.20131E-06
 2.05915E-05
 6.64791E-06
 1.84861E-05
 1.35935E-05
 2.91286E-06
 3.10807E-07
 2.89392E-06
 1.60407E-05
 2.11081E-05
 1.84340E-05
 6.39517E-06
 6.02483E-07
 3.23906E-08
 5.89663E-07
 5.80811E-07
 7.04228E-08
 4.99932E-08
 2.70644E-08
 1.04088E-07
SCALARS l2grad2  float  1
LOOKUP_TABLE default
 1.19808E-01
 6.35445E-02
 8.38591E-02
 5.31688E-02
 4.66538E-02
 2.80316E-02
 8.87376E-02
 1.20942E-01
 5.49019E-02
 5.29653E-02
 4.48424E-02
 2.99514E-02
 2.46855E-02
 8.78085E-02
 8.08139E-02
 6.43802E-02
 1.10238E-01
 9.35502E-02
 6.57819E-02
 1.94537E-02
 6.73599E-02
 5.43511E-02
 2.85766E-02
 5.64500E-02
 2.74517E-02
 4.40004E-02
 3.84849E-02
 5.01892E-02
 3.66786E-02
 6.77079E-02
 2.07580E-01
 2.76387E-01
 2.40815E-01
 1.39290E-01
 2.71146E-02
 2.10712E-02
 9.71929E-02
 2.43274E-01
 7.85434E-02
 2.18439E-01
 1.60851E-01
 3.45769E-02
 3.68007E-03
 3.44114E-02
 1.91761E-01
 2.49421E-01
 2.19478E-01
 7.64025E-02
 7.23136E-03
 3.70968E-04
 7.03612E-03
 6.92583E-03
 8.25946E-04
 5.88694E-04
 3.03796E-04
 1.22615E-03
