# vtk DataFile Version 2.0
OUTPUT FROM BUFEM
ASCII
DATASET UNSTRUCTURED_GRID
POINTS           88 FLOAT
 6.000000E-01  2.500000E-01  0.000000E+00
 6.500000E-01  2.500000E-01  0.000000E+00
 7.000000E-01  2.500000E-01  0.000000E+00
 7.500000E-01  2.500000E-01  0.000000E+00
 8.000000E-01  2.500000E-01  0.000000E+00
 8.500000E-01  2.500000E-01  0.000000E+00
 9.000000E-01  2.500000E-01  0.000000E+00
 9.500000E-01  2.500000E-01  0.000000E+00
 6.000000E-01  3.000000E-01  0.000000E+00
 6.500000E-01  3.000000E-01  0.000000E+00
 7.000000E-01  3.000000E-01  0.000000E+00
 7.500000E-01  3.000000E-01  0.000000E+00
 8.000000E-01  3.000000E-01  0.000000E+00
 8.500000E-01  3.000000E-01  0.000000E+00
 9.000000E-01  3.000000E-01  0.000000E+00
 9.500000E-01  3.000000E-01  0.000000E+00
 6.000000E-01  3.500000E-01  0.000000E+00
 6.500000E-01  3.500000E-01  0.000000E+00
 7.000000E-01  3.500000E-01  0.000000E+00
 7.500000E-01  3.500000E-01  0.000000E+00
 8.000000E-01  3.500000E-01  0.000000E+00
 8.500000E-01  3.500000E-01  0.000000E+00
 9.000000E-01  3.500000E-01  0.000000E+00
 9.500000E-01  3.500000E-01  0.000000E+00
 6.000000E-01  4.000000E-01  0.000000E+00
 6.500000E-01  4.000000E-01  0.000000E+00
 7.000000E-01  4.000000E-01  0.000000E+00
 7.500000E-01  4.000000E-01  0.000000E+00
 8.000000E-01  4.000000E-01  0.000000E+00
 8.500000E-01  4.000000E-01  0.000000E+00
 9.000000E-01  4.000000E-01  0.000000E+00
 9.500000E-01  4.000000E-01  0.000000E+00
 6.000000E-01  4.500000E-01  0.000000E+00
 6.500000E-01  4.500000E-01  0.000000E+00
 7.000000E-01  4.500000E-01  0.000000E+00
 7.500000E-01  4.500000E-01  0.000000E+00
 8.000000E-01  4.500000E-01  0.000000E+00
 8.500000E-01  4.500000E-01  0.000000E+00
 9.000000E-01  4.500000E-01  0.000000E+00
 9.500000E-01  4.500000E-01  0.000000E+00
 6.000000E-01  5.000000E-01  0.000000E+00
 6.500000E-01  5.000000E-01  0.000000E+00
 7.000000E-01  5.000000E-01  0.000000E+00
 7.500000E-01  5.000000E-01  0.000000E+00
 8.000000E-01  5.000000E-01  0.000000E+00
 8.500000E-01  5.000000E-01  0.000000E+00
 9.000000E-01  5.000000E-01  0.000000E+00
 9.500000E-01  5.000000E-01  0.000000E+00
 6.000000E-01  5.500000E-01  0.000000E+00
 6.500000E-01  5.500000E-01  0.000000E+00
 7.000000E-01  5.500000E-01  0.000000E+00
 7.500000E-01  5.500000E-01  0.000000E+00
 8.000000E-01  5.500000E-01  0.000000E+00
 8.500000E-01  5.500000E-01  0.000000E+00
 9.000000E-01  5.500000E-01  0.000000E+00
 9.500000E-01  5.500000E-01  0.000000E+00
 6.000000E-01  6.000000E-01  0.000000E+00
 6.500000E-01  6.000000E-01  0.000000E+00
 7.000000E-01  6.000000E-01  0.000000E+00
 7.500000E-01  6.000000E-01  0.000000E+00
 8.000000E-01  6.000000E-01  0.000000E+00
 8.500000E-01  6.000000E-01  0.000000E+00
 9.000000E-01  6.000000E-01  0.000000E+00
 9.500000E-01  6.000000E-01  0.000000E+00
 6.000000E-01  6.500000E-01  0.000000E+00
 6.500000E-01  6.500000E-01  0.000000E+00
 7.000000E-01  6.500000E-01  0.000000E+00
 7.500000E-01  6.500000E-01  0.000000E+00
 8.000000E-01  6.500000E-01  0.000000E+00
 8.500000E-01  6.500000E-01  0.000000E+00
 9.000000E-01  6.500000E-01  0.000000E+00
 9.500000E-01  6.500000E-01  0.000000E+00
 6.000000E-01  7.000000E-01  0.000000E+00
 6.500000E-01  7.000000E-01  0.000000E+00
 7.000000E-01  7.000000E-01  0.000000E+00
 7.500000E-01  7.000000E-01  0.000000E+00
 8.000000E-01  7.000000E-01  0.000000E+00
 8.500000E-01  7.000000E-01  0.000000E+00
 9.000000E-01  7.000000E-01  0.000000E+00
 9.500000E-01  7.000000E-01  0.000000E+00
 6.000000E-01  7.500000E-01  0.000000E+00
 6.500000E-01  7.500000E-01  0.000000E+00
 7.000000E-01  7.500000E-01  0.000000E+00
 7.500000E-01  7.500000E-01  0.000000E+00
 8.000000E-01  7.500000E-01  0.000000E+00
 8.500000E-01  7.500000E-01  0.000000E+00
 9.000000E-01  7.500000E-01  0.000000E+00
 9.500000E-01  7.500000E-01  0.000000E+00
CELLS          140         560
           3           0           1           8
           3           1           9           8
           3           1           2           9
           3           2          10           9
           3           2           3          10
           3           3          11          10
           3           3           4          11
           3           4          12          11
           3           4           5          12
           3           5          13          12
           3           5           6          13
           3           6          14          13
           3           6           7          14
           3           7          15          14
           3           8           9          16
           3           9          17          16
           3           9          10          17
           3          10          18          17
           3          10          11          18
           3          11          19          18
           3          11          12          19
           3          12          20          19
           3          12          13          20
           3          13          21          20
           3          13          14          21
           3          14          22          21
           3          14          15          22
           3          15          23          22
           3          16          17          24
           3          17          25          24
           3          17          18          25
           3          18          26          25
           3          18          19          26
           3          19          27          26
           3          19          20          27
           3          20          28          27
           3          20          21          28
           3          21          29          28
           3          21          22          29
           3          22          30          29
           3          22          23          30
           3          23          31          30
           3          24          25          32
           3          25          33          32
           3          25          26          33
           3          26          34          33
           3          26          27          34
           3          27          35          34
           3          27          28          35
           3          28          36          35
           3          28          29          36
           3          29          37          36
           3          29          30          37
           3          30          38          37
           3          30          31          38
           3          31          39          38
           3          32          33          40
           3          33          41          40
           3          33          34          41
           3          34          42          41
           3          34          35          42
           3          35          43          42
           3          35          36          43
           3          36          44          43
           3          36          37          44
           3          37          45          44
           3          37          38          45
           3          38          46          45
           3          38          39          46
           3          39          47          46
           3          40          41          48
           3          41          49          48
           3          41          42          49
           3          42          50          49
           3          42          43          50
           3          43          51          50
           3          43          44          51
           3          44          52          51
           3          44          45          52
           3          45          53          52
           3          45          46          53
           3          46          54          53
           3          46          47          54
           3          47          55          54
           3          48          49          56
           3          49          57          56
           3          49          50          57
           3          50          58          57
           3          50          51          58
           3          51          59          58
           3          51          52          59
           3          52          60          59
           3          52          53          60
           3          53          61          60
           3          53          54          61
           3          54          62          61
           3          54          55          62
           3          55          63          62
           3          56          57          64
           3          57          65          64
           3          57          58          65
           3          58          66          65
           3          58          59          66
           3          59          67          66
           3          59          60          67
           3          60          68          67
           3          60          61          68
           3          61          69          68
           3          61          62          69
           3          62          70          69
           3          62          63          70
           3          63          71          70
           3          64          65          72
           3          65          73          72
           3          65          66          73
           3          66          74          73
           3          66          67          74
           3          67          75          74
           3          67          68          75
           3          68          76          75
           3          68          69          76
           3          69          77          76
           3          69          70          77
           3          70          78          77
           3          70          71          78
           3          71          79          78
           3          72          73          80
           3          73          81          80
           3          73          74          81
           3          74          82          81
           3          74          75          82
           3          75          83          82
           3          75          76          83
           3          76          84          83
           3          76          77          84
           3          77          85          84
           3          77          78          85
           3          78          86          85
           3          78          79          86
           3          79          87          86
CELL_TYPES          140
5
5
5
5
5
5
5
5
5
5
5
5
5
5
5
5
5
5
5
5
5
5
5
5
5
5
5
5
5
5
5
5
5
5
5
5
5
5
5
5
5
5
5
5
5
5
5
5
5
5
5
5
5
5
5
5
5
5
5
5
5
5
5
5
5
5
5
5
5
5
5
5
5
5
5
5
5
5
5
5
5
5
5
5
5
5
5
5
5
5
5
5
5
5
5
5
5
5
5
5
5
5
5
5
5
5
5
5
5
5
5
5
5
5
5
5
5
5
5
5
5
5
5
5
5
5
5
5
5
5
5
5
5
5
5
5
5
5
5
5
POINT_DATA           88
 SCALARS measuredDisp11 float  1                   
LOOKUP_TABLE default
 1.60000E-04
 2.36000E-04
 3.78000E-04
 5.10000E-04
 5.99000E-04
 7.16000E-04
 8.28000E-04
 9.85000E-04
 1.80000E-04
 2.39000E-04
 4.14000E-04
 4.16000E-04
 5.88000E-04
 7.34000E-04
 8.06000E-04
 9.81000E-04
 1.76000E-04
 3.33000E-04
 3.51000E-04
 3.74000E-04
 5.56000E-04
 6.67000E-04
 7.67000E-04
 8.85000E-04
 2.18000E-04
 3.55000E-04
 4.39000E-04
 5.02000E-04
 5.04000E-04
 5.75000E-04
 6.77000E-04
 7.85000E-04
 2.65000E-04
 4.09000E-04
 5.20000E-04
 5.11000E-04
 5.49000E-04
 5.82000E-04
 5.87000E-04
 8.10000E-04
 2.37000E-04
 3.57000E-04
 5.39000E-04
 4.27000E-04
 5.30000E-04
 6.13000E-04
 6.18000E-04
 6.40000E-04
 2.28000E-04
 3.42000E-04
 5.19000E-04
 4.62000E-04
 5.10000E-04
 6.02000E-04
 5.97000E-04
 8.01000E-04
 1.86000E-04
 3.10000E-04
 4.09000E-04
 5.36000E-04
 5.25000E-04
 5.93000E-04
 6.97000E-04
 7.79000E-04
 1.95000E-04
 2.72000E-04
 3.78000E-04
 4.81000E-04
 5.57000E-04
 6.59000E-04
 8.34000E-04
 8.67000E-04
 1.60000E-04
 2.57000E-04
 4.53000E-04
 4.60000E-04
 5.96000E-04
 7.29000E-04
 8.04000E-04
 9.40000E-04
 1.89000E-04
 2.52000E-04
 3.96000E-04
 4.41000E-04
 5.92000E-04
 7.39000E-04
 9.06000E-04
 9.78000E-04
 SCALARS measuredDisp12 float  1                   
LOOKUP_TABLE default
 1.52300E-03
 1.49400E-03
 1.47800E-03
 1.37500E-03
 1.37100E-03
 1.43200E-03
 1.39700E-03
 1.51600E-03
 1.38600E-03
 1.43000E-03
 1.32100E-03
 1.30900E-03
 1.23200E-03
 1.34200E-03
 1.36900E-03
 1.42900E-03
 1.33200E-03
 1.28300E-03
 1.24700E-03
 1.17400E-03
 1.18700E-03
 1.18400E-03
 1.29500E-03
 1.29500E-03
 1.24200E-03
 1.18800E-03
 1.17600E-03
 1.10000E-03
 1.03800E-03
 1.10900E-03
 1.10200E-03
 1.21700E-03
 1.17100E-03
 1.07600E-03
 1.04500E-03
 1.00900E-03
 1.10900E-03
 1.02900E-03
 1.06300E-03
 1.06500E-03
 1.01900E-03
 1.01900E-03
 1.02100E-03
 9.31000E-04
 1.04200E-03
 1.03900E-03
 9.84000E-04
 9.95000E-04
 8.93000E-04
 9.46000E-04
 9.82000E-04
 9.78000E-04
 9.54000E-04
 9.32000E-04
 9.23000E-04
 9.56000E-04
 7.84000E-04
 7.58000E-04
 8.28000E-04
 9.00000E-04
 8.74000E-04
 9.25000E-04
 9.24000E-04
 8.07000E-04
 6.60000E-04
 7.70000E-04
 8.23000E-04
 8.59000E-04
 8.85000E-04
 8.07000E-04
 7.87000E-04
 7.12000E-04
 6.24000E-04
 5.67000E-04
 6.54000E-04
 7.09000E-04
 7.34000E-04
 7.27000E-04
 6.30000E-04
 5.98000E-04
 5.12000E-04
 4.59000E-04
 5.47000E-04
 5.89000E-04
 5.95000E-04
 6.48000E-04
 5.20000E-04
 5.02000E-04
 SCALARS measuredDisp13 float  1                   
LOOKUP_TABLE default
 4.29600E-03
 4.18100E-03
 3.88600E-03
 3.35800E-03
 2.89100E-03
 2.65600E-03
 2.88000E-03
 3.45500E-03
 3.90000E-03
 4.22100E-03
 4.36400E-03
 4.57000E-03
 4.40600E-03
 4.19500E-03
 3.50900E-03
 2.40800E-03
 1.94000E-03
 2.46100E-03
 3.62000E-03
 4.16300E-03
 4.47600E-03
 4.46600E-03
 4.78600E-03
 4.80500E-03
 4.93700E-03
 4.25500E-03
 2.31600E-03
 1.88700E-03
 2.38500E-03
 4.28500E-03
 4.91200E-03
 4.83700E-03
 4.72200E-03
 4.96400E-03
 5.38100E-03
 6.06900E-03
 6.07100E-03
 4.27400E-03
 4.92200E-03
 4.25300E-03
 6.04200E-03
 5.92800E-03
 5.38200E-03
 4.95300E-03
 5.07000E-03
 5.52600E-03
 6.50000E-03
 6.48300E-03
 4.17200E-03
 4.60700E-03
 4.15100E-03
 6.49300E-03
 6.53600E-03
 5.54200E-03
 4.97000E-03
 4.91300E-03
 5.20500E-03
 5.77700E-03
 5.89600E-03
 4.72800E-03
 5.21500E-03
 4.68700E-03
 5.95300E-03
 5.91800E-03
 5.28800E-03
 4.83100E-03
 4.44600E-03
 4.59100E-03
 4.75900E-03
 4.39000E-03
 3.38200E-03
 3.30100E-03
 3.37800E-03
 4.42100E-03
 4.84600E-03
 4.59600E-03
 4.50300E-03
 4.02500E-03
 4.02900E-03
 4.05400E-03
 3.98400E-03
 3.87100E-03
 3.62800E-03
 3.77000E-03
 3.99600E-03
 4.05500E-03
 4.02200E-03
 4.00000E-03
 SCALARS predictedDisp11 float  1                  
LOOKUP_TABLE default
 1.90732E-04
 2.88812E-04
 3.78000E-04
 4.95660E-04
 6.35924E-04
 7.48518E-04
 8.77845E-04
 9.97059E-04
 2.09366E-04
 3.11347E-04
 4.16170E-04
 5.20319E-04
 6.25406E-04
 7.29843E-04
 8.30031E-04
 9.25267E-04
 2.31543E-04
 3.38693E-04
 4.41572E-04
 5.35746E-04
 6.22514E-04
 7.07280E-04
 7.92815E-04
 8.86097E-04
 2.81024E-04
 3.77394E-04
 4.71486E-04
 5.51851E-04
 6.21460E-04
 6.89308E-04
 7.60822E-04
 8.33358E-04
 3.31788E-04
 4.16729E-04
 4.96232E-04
 5.62369E-04
 6.21997E-04
 6.81258E-04
 7.43844E-04
 8.10244E-04
 3.60434E-04
 4.35343E-04
 5.06502E-04
 5.67453E-04
 6.24842E-04
 6.83279E-04
 7.47381E-04
 8.18943E-04
 3.42197E-04
 4.24288E-04
 5.00006E-04
 5.65150E-04
 6.25909E-04
 6.86726E-04
 7.51213E-04
 8.18128E-04
 2.96284E-04
 3.91084E-04
 4.78706E-04
 5.54982E-04
 6.25098E-04
 6.93698E-04
 7.68632E-04
 8.57399E-04
 2.22392E-04
 3.37274E-04
 4.44696E-04
 5.40307E-04
 6.29176E-04
 7.17633E-04
 8.13583E-04
 9.21366E-04
 1.68294E-04
 2.97328E-04
 4.15442E-04
 5.27108E-04
 6.35227E-04
 7.45045E-04
 8.53684E-04
 9.66868E-04
 1.76145E-04
 2.82389E-04
 3.78658E-04
 5.05959E-04
 6.29342E-04
 7.68032E-04
 9.04838E-04
 1.00449E-03
 SCALARS predictedDisp12 float  1                  
LOOKUP_TABLE default
 1.52300E-03
 1.49400E-03
 1.47800E-03
 1.37500E-03
 1.37100E-03
 1.43200E-03
 1.39700E-03
 1.51600E-03
 1.38600E-03
 1.38037E-03
 1.34934E-03
 1.29730E-03
 1.28646E-03
 1.30988E-03
 1.33377E-03
 1.42900E-03
 1.33200E-03
 1.27824E-03
 1.23671E-03
 1.20027E-03
 1.18853E-03
 1.20208E-03
 1.23416E-03
 1.29500E-03
 1.24200E-03
 1.18074E-03
 1.14082E-03
 1.11754E-03
 1.11245E-03
 1.12235E-03
 1.14867E-03
 1.21700E-03
 1.17100E-03
 1.09940E-03
 1.06955E-03
 1.05806E-03
 1.05652E-03
 1.06075E-03
 1.06814E-03
 1.06500E-03
 1.01900E-03
 1.01067E-03
 1.00442E-03
 1.00282E-03
 1.00383E-03
 1.00556E-03
 1.00535E-03
 9.95000E-04
 8.93000E-04
 9.24580E-04
 9.38549E-04
 9.46198E-04
 9.49886E-04
 9.49814E-04
 9.46946E-04
 9.56000E-04
 7.84000E-04
 8.37402E-04
 8.68746E-04
 8.87365E-04
 8.95082E-04
 8.91546E-04
 8.68656E-04
 8.07000E-04
 6.60000E-04
 7.32976E-04
 7.78725E-04
 8.07950E-04
 8.18876E-04
 8.10666E-04
 7.69038E-04
 7.12000E-04
 6.24000E-04
 6.13937E-04
 6.59183E-04
 6.94658E-04
 7.08679E-04
 7.12047E-04
 6.51691E-04
 5.98000E-04
 5.12000E-04
 4.59000E-04
 5.47000E-04
 5.89000E-04
 5.95000E-04
 6.48000E-04
 5.20000E-04
 5.02000E-04
 SCALARS predictedDisp13 float  1                  
LOOKUP_TABLE default
 4.75292E-03
 4.68880E-03
 4.44198E-03
 3.92855E-03
 3.75176E-03
 3.87352E-03
 3.73904E-03
 3.71995E-03
 4.53079E-03
 4.50432E-03
 4.36246E-03
 4.03788E-03
 3.99180E-03
 4.05998E-03
 4.03879E-03
 4.16003E-03
 4.33698E-03
 4.41571E-03
 4.37908E-03
 4.24392E-03
 4.23669E-03
 4.33901E-03
 4.46243E-03
 4.57298E-03
 4.50746E-03
 4.51196E-03
 4.42207E-03
 4.31478E-03
 4.31909E-03
 4.47156E-03
 4.71914E-03
 4.98525E-03
 5.05727E-03
 4.92405E-03
 4.60330E-03
 4.39153E-03
 4.35244E-03
 4.51598E-03
 4.85533E-03
 5.05237E-03
 5.55909E-03
 5.22104E-03
 4.77783E-03
 4.47950E-03
 4.35893E-03
 4.40986E-03
 4.55644E-03
 4.60567E-03
 5.43458E-03
 5.14985E-03
 4.77826E-03
 4.49612E-03
 4.35840E-03
 4.38607E-03
 4.54568E-03
 4.74239E-03
 5.09506E-03
 4.94769E-03
 4.73514E-03
 4.53892E-03
 4.43314E-03
 4.47698E-03
 4.68698E-03
 4.77724E-03
 4.69131E-03
 4.73227E-03
 4.73953E-03
 4.61120E-03
 4.48453E-03
 4.41997E-03
 4.51233E-03
 4.54825E-03
 4.67558E-03
 4.87575E-03
 4.80395E-03
 4.55852E-03
 4.34628E-03
 4.17455E-03
 4.33043E-03
 4.41067E-03
 4.96616E-03
 5.04204E-03
 4.76837E-03
 4.45387E-03
 4.14975E-03
 3.98290E-03
 4.25963E-03
 4.32386E-03
 SCALARS dual11 float  1                           
LOOKUP_TABLE default
 8.40375E-10
 1.14015E-09
 0.00000E+00
 3.53449E-09
 1.03238E-08
 1.70925E-08
 1.75037E-08
 1.55694E-08
 1.73005E-09
 1.10702E-09
 2.05929E-09
 4.88699E-09
 1.13200E-08
 1.44310E-08
 1.49533E-08
 1.64435E-08
 4.22484E-09
 5.19886E-09
 5.46222E-09
 7.25838E-09
 9.64316E-09
 1.08181E-08
 1.05731E-08
 1.34389E-08
 1.02115E-08
 1.04398E-08
 1.03086E-08
 1.03389E-08
 9.15598E-09
 5.42863E-09
 4.44490E-09
 3.78732E-09
 1.65829E-08
 1.61438E-08
 1.54543E-08
 1.28738E-08
 6.92967E-09
 1.64987E-09
-2.04948E-09
-5.20472E-09
 2.11028E-08
 1.91346E-08
 1.73353E-08
 1.28405E-08
 5.61808E-09
-1.23763E-10
-4.48018E-09
-9.62471E-09
 1.94551E-08
 1.77960E-08
 1.61829E-08
 1.11807E-08
 5.89671E-09
 1.69977E-09
-2.74291E-09
-8.26076E-09
 1.33254E-08
 1.32861E-08
 1.08933E-08
 7.87872E-09
 6.19971E-09
 4.42535E-09
 2.94577E-09
 1.34792E-09
 4.84323E-09
 3.56844E-09
 2.64261E-09
 3.70943E-09
 6.22675E-09
 1.00222E-08
 1.34549E-08
 1.61605E-08
-7.08853E-09
-5.12224E-09
-4.29634E-09
 4.49957E-10
 8.57438E-09
 1.67778E-08
 2.32877E-08
 2.77626E-08
-1.08849E-08
-1.00827E-08
-7.66114E-09
 1.05519E-10
 1.09840E-08
 2.03335E-08
 2.61307E-08
 3.12415E-08
 SCALARS dual12 float  1                           
LOOKUP_TABLE default
 0.00000E+00
 0.00000E+00
 0.00000E+00
 0.00000E+00
 0.00000E+00
 0.00000E+00
 0.00000E+00
 0.00000E+00
 0.00000E+00
 1.17692E-08
-5.05919E-09
-1.36932E-08
-2.31753E-08
 2.07283E-09
 1.53113E-08
 0.00000E+00
 0.00000E+00
 6.10842E-09
-3.39230E-09
-2.46874E-08
-2.84861E-08
-1.00001E-08
 1.17727E-08
 0.00000E+00
 0.00000E+00
 2.37298E-09
-4.45633E-09
-2.72921E-08
-3.14417E-08
-1.60378E-08
-9.58232E-09
 0.00000E+00
 0.00000E+00
-4.48220E-09
-1.15725E-08
-2.31244E-08
-8.47897E-09
-7.41458E-09
-6.26220E-09
 0.00000E+00
 0.00000E+00
 1.75025E-10
-1.82013E-09
-7.85577E-09
 8.96440E-09
 7.49057E-09
-1.70494E-09
 0.00000E+00
 0.00000E+00
 1.48003E-09
 7.79149E-09
 1.45919E-08
 1.87795E-08
 1.27935E-08
 5.61376E-09
 0.00000E+00
 0.00000E+00
-1.23610E-08
 5.90629E-09
 2.61086E-08
 2.94426E-08
 2.95973E-08
 2.33282E-08
 0.00000E+00
 0.00000E+00
 1.94121E-09
 2.30966E-08
 4.45367E-08
 5.07494E-08
 3.49430E-08
 2.03685E-08
 0.00000E+00
 0.00000E+00
-7.17602E-09
 1.11613E-08
 3.00149E-08
 3.40710E-08
 2.15287E-08
 5.12249E-09
 0.00000E+00
 0.00000E+00
 0.00000E+00
 0.00000E+00
 0.00000E+00
 0.00000E+00
 0.00000E+00
 0.00000E+00
 0.00000E+00
 SCALARS dual13 float  1                           
LOOKUP_TABLE default
-2.76513E-08
-2.79503E-08
-1.29070E-07
-2.49823E-07
-2.91552E-07
-1.73988E-07
-2.72109E-08
 6.65349E-09
-2.95387E-08
-5.83341E-08
-1.36259E-07
-2.19904E-07
-2.29276E-07
-1.56606E-07
-8.46349E-08
-6.63287E-08
-5.35117E-08
-6.73663E-08
-8.31593E-08
-1.08035E-07
-1.14539E-07
-1.33835E-07
-1.36066E-07
-1.18890E-07
-1.71149E-08
-2.23454E-08
 1.18030E-08
 8.27252E-08
 1.42723E-07
 6.89586E-08
-7.87737E-09
-3.64679E-09
 5.61918E-08
 9.03108E-08
 2.19970E-07
 4.10164E-07
 4.94239E-07
 3.82463E-07
 2.31574E-07
 1.59831E-07
 1.40444E-07
 2.00123E-07
 3.79538E-07
 5.87098E-07
 6.23725E-07
 5.05817E-07
 3.52090E-07
 2.67977E-07
 1.03903E-07
 1.42561E-07
 3.15584E-07
 5.21061E-07
 5.60395E-07
 5.04661E-07
 3.94515E-07
 3.07281E-07
 3.15110E-08
 8.34740E-08
 2.23035E-07
 3.60678E-07
 4.01729E-07
 3.30809E-07
 2.07848E-07
 1.49350E-07
-2.82980E-09
-2.20670E-09
-7.89290E-09
-9.53262E-09
-2.71810E-08
-5.87553E-08
-6.78838E-08
-4.77554E-08
-1.12711E-07
-1.45638E-07
-2.52958E-07
-3.62877E-07
-3.98031E-07
-3.40310E-07
-2.34090E-07
-1.62373E-07
-1.12762E-07
-1.79568E-07
-3.63397E-07
-5.18391E-07
-5.34236E-07
-4.13168E-07
-2.60214E-07
-1.94082E-07
 SCALARS property1 float  1                        
LOOKUP_TABLE default
 0.00000E+00
 0.00000E+00
 0.00000E+00
 0.00000E+00
 0.00000E+00
 0.00000E+00
 0.00000E+00
 0.00000E+00
 0.00000E+00
 0.00000E+00
 0.00000E+00
 0.00000E+00
 0.00000E+00
 0.00000E+00
 0.00000E+00
 0.00000E+00
 0.00000E+00
 0.00000E+00
 0.00000E+00
 0.00000E+00
 0.00000E+00
 0.00000E+00
 0.00000E+00
 0.00000E+00
 0.00000E+00
 0.00000E+00
 0.00000E+00
 0.00000E+00
 0.00000E+00
 0.00000E+00
 0.00000E+00
 0.00000E+00
 0.00000E+00
 0.00000E+00
 0.00000E+00
 0.00000E+00
 0.00000E+00
 0.00000E+00
 0.00000E+00
 0.00000E+00
 0.00000E+00
 0.00000E+00
 0.00000E+00
 0.00000E+00
 0.00000E+00
 0.00000E+00
 0.00000E+00
 0.00000E+00
 0.00000E+00
 0.00000E+00
 0.00000E+00
 0.00000E+00
 0.00000E+00
 0.00000E+00
 0.00000E+00
 0.00000E+00
 0.00000E+00
 0.00000E+00
 0.00000E+00
 0.00000E+00
 0.00000E+00
 0.00000E+00
 0.00000E+00
 0.00000E+00
 0.00000E+00
 0.00000E+00
 0.00000E+00
 0.00000E+00
 0.00000E+00
 0.00000E+00
 0.00000E+00
 0.00000E+00
 0.00000E+00
 0.00000E+00
 0.00000E+00
 0.00000E+00
 0.00000E+00
 0.00000E+00
 0.00000E+00
 0.00000E+00
 0.00000E+00
 0.00000E+00
 0.00000E+00
 0.00000E+00
 0.00000E+00
 0.00000E+00
 0.00000E+00
 0.00000E+00
 SCALARS property2 float  1                        
LOOKUP_TABLE default
 1.10213E+00
 1.09397E+00
 1.09013E+00
 1.05062E+00
 1.05343E+00
 1.06611E+00
 1.08620E+00
 1.08206E+00
 1.10128E+00
 1.09769E+00
 1.08020E+00
 1.05637E+00
 1.05633E+00
 1.06273E+00
 1.07656E+00
 1.07479E+00
 1.10599E+00
 1.09168E+00
 1.07621E+00
 1.06687E+00
 1.06953E+00
 1.06444E+00
 1.07732E+00
 1.07756E+00
 1.25624E+00
 1.27461E+00
 1.34108E+00
 1.54334E+00
 1.68847E+00
 1.58486E+00
 1.41029E+00
 1.37792E+00
 1.46066E+00
 1.46385E+00
 1.67071E+00
 1.84171E+00
 1.87897E+00
 1.87273E+00
 1.72700E+00
 1.67732E+00
 1.47766E+00
 1.48363E+00
 1.75352E+00
 1.87867E+00
 1.88182E+00
 1.87227E+00
 1.77335E+00
 1.73899E+00
 1.48922E+00
 1.48450E+00
 1.69928E+00
 1.86948E+00
 1.87448E+00
 1.87014E+00
 1.77166E+00
 1.63240E+00
 1.26035E+00
 1.33457E+00
 1.54182E+00
 1.73217E+00
 1.77112E+00
 1.65902E+00
 1.30640E+00
 1.12961E+00
 1.01973E+00
 1.02212E+00
 1.02313E+00
 1.01386E+00
 1.00990E+00
 1.00090E+00
 1.00000E+00
 1.00184E+00
 1.00715E+00
 1.00278E+00
 1.00000E+00
 1.00000E+00
 1.00000E+00
 1.00000E+00
 1.00000E+00
 1.00073E+00
 1.00196E+00
 1.00120E+00
 1.00044E+00
 1.00000E+00
 1.00000E+00
 1.00000E+00
 1.00026E+00
 1.00000E+00
 SCALARS gradient1 float  1                        
LOOKUP_TABLE default
 0.00000E+00
 0.00000E+00
 0.00000E+00
 0.00000E+00
 0.00000E+00
 0.00000E+00
 0.00000E+00
 0.00000E+00
 0.00000E+00
 0.00000E+00
 0.00000E+00
 0.00000E+00
 0.00000E+00
 0.00000E+00
 0.00000E+00
 0.00000E+00
 0.00000E+00
 0.00000E+00
 0.00000E+00
 0.00000E+00
 0.00000E+00
 0.00000E+00
 0.00000E+00
 0.00000E+00
 0.00000E+00
 0.00000E+00
 0.00000E+00
 0.00000E+00
 0.00000E+00
 0.00000E+00
 0.00000E+00
 0.00000E+00
 0.00000E+00
 0.00000E+00
 0.00000E+00
 0.00000E+00
 0.00000E+00
 0.00000E+00
 0.00000E+00
 0.00000E+00
 0.00000E+00
 0.00000E+00
 0.00000E+00
 0.00000E+00
 0.00000E+00
 0.00000E+00
 0.00000E+00
 0.00000E+00
 0.00000E+00
 0.00000E+00
 0.00000E+00
 0.00000E+00
 0.00000E+00
 0.00000E+00
 0.00000E+00
 0.00000E+00
 0.00000E+00
 0.00000E+00
 0.00000E+00
 0.00000E+00
 0.00000E+00
 0.00000E+00
 0.00000E+00
 0.00000E+00
 0.00000E+00
 0.00000E+00
 0.00000E+00
 0.00000E+00
 0.00000E+00
 0.00000E+00
 0.00000E+00
 0.00000E+00
 0.00000E+00
 0.00000E+00
 0.00000E+00
 0.00000E+00
 0.00000E+00
 0.00000E+00
 0.00000E+00
 0.00000E+00
 0.00000E+00
 0.00000E+00
 0.00000E+00
 0.00000E+00
 0.00000E+00
 0.00000E+00
 0.00000E+00
 0.00000E+00
 SCALARS gradient2 float  1                        
LOOKUP_TABLE default
 1.38154E-12
-2.98537E-12
 1.30107E-12
-1.63973E-12
 4.25109E-13
 1.74113E-12
 2.63647E-12
 2.13880E-13
 1.08564E-13
 3.06947E-12
 1.05907E-12
 6.20178E-14
 6.14341E-13
-1.14094E-12
 8.78497E-13
-3.85103E-12
 1.24771E-12
-2.69940E-12
-2.66724E-12
 2.71141E-13
 2.66283E-12
-3.06619E-12
 8.69527E-13
 7.46276E-13
-1.34453E-13
 1.67155E-13
 6.56701E-13
 6.90204E-13
 8.60165E-13
 3.35502E-13
-2.89726E-13
-4.49880E-13
-1.14488E-13
-3.85865E-13
 9.05063E-13
-2.58940E-13
 6.54557E-13
 1.19714E-12
-6.82523E-13
-1.33664E-12
-1.07040E-12
-1.19137E-12
 3.32768E-13
 8.98335E-13
 4.33603E-12
-9.45070E-13
-2.22144E-13
-5.00178E-13
 3.43921E-12
-1.14586E-12
 1.00768E-13
 7.44516E-14
 9.25677E-13
 5.54565E-13
-4.13655E-13
-1.60887E-12
-5.97046E-13
-6.95976E-13
-1.01259E-12
-9.56219E-13
-1.10666E-12
-1.41430E-12
-1.13538E-12
-8.35363E-13
-8.04728E-13
-5.08874E-13
 3.01787E-13
 2.33121E-13
 1.24184E-12
 1.57876E-12
-2.07281E-12
 1.95309E-12
 1.42381E-12
 5.01769E-13
-2.75697E-12
 3.12808E-12
 4.77127E-12
 3.44330E-12
 4.12002E-13
 2.60081E-12
-5.73480E-13
-1.27281E-12
 4.14415E-12
 3.42296E-12
 4.37109E-12
 1.57894E-12
 3.26747E-12
-1.34536E-12
CELL_DATA         140
SCALARS residual     float  1
LOOKUP_TABLE default
 0.00000E+00
 2.56603E-13
 2.56603E-13
 1.93745E-13
 8.36579E-14
 6.33803E-14
 1.42523E-14
 2.56829E-13
 3.08932E-13
 2.34192E-13
 1.07482E-13
 3.54599E-13
 1.29252E-13
 1.29252E-13
 2.56603E-13
 2.83551E-13
 2.06652E-13
 5.77236E-14
 5.65735E-14
 4.95378E-14
 4.45716E-13
 5.42915E-13
 2.37990E-13
 7.90420E-14
 2.61828E-13
 5.91258E-13
 7.38105E-13
 3.85605E-13
 2.35673E-15
 1.14542E-14
 3.53857E-14
 2.17616E-13
 1.25143E-13
 1.20299E-13
 1.59119E-13
 7.60294E-13
 7.66544E-13
 8.98848E-13
 2.64167E-13
 3.15578E-13
 3.16714E-13
 2.26909E-13
 5.49787E-15
 4.48107E-14
 1.14628E-13
 1.32852E-13
 1.14360E-13
 6.05443E-13
 1.46619E-12
 8.20228E-13
 5.06406E-13
 2.08092E-13
 6.13922E-13
 5.30990E-13
 2.54639E-13
 2.74996E-15
 5.70181E-14
 4.39427E-14
 1.45242E-13
 4.93245E-14
 3.40460E-13
 9.74919E-13
 7.81098E-13
 5.06490E-13
 4.52593E-13
 2.69379E-13
 1.12727E-13
 8.58629E-14
 6.16605E-14
 4.74835E-14
 7.23429E-15
 7.36243E-14
 1.53620E-13
 4.82051E-13
 3.88537E-13
 4.20275E-13
 3.97396E-13
 4.15344E-13
 4.33656E-13
 9.59300E-14
 1.00209E-13
 2.77575E-13
 1.60469E-13
 5.97299E-14
 4.77953E-14
 5.27359E-13
 4.61594E-13
 8.19544E-13
 2.99502E-13
 1.48172E-13
 1.84644E-13
 3.33231E-14
 1.03567E-13
 9.95100E-14
 1.08276E-13
 4.66745E-13
 2.40743E-13
 3.19062E-13
 6.56732E-13
 4.93296E-13
 8.46107E-13
 3.45618E-13
 2.10495E-13
 8.53208E-13
 2.61731E-13
 8.67529E-13
 6.30084E-13
 7.65838E-13
 5.96000E-13
 4.29629E-13
 4.56224E-13
 3.36085E-14
 1.42787E-13
 1.91256E-13
 3.49735E-13
 2.21447E-13
 6.62453E-13
 3.36657E-13
 1.27502E-12
 8.54679E-13
 6.63123E-13
 1.15535E-13
 7.37064E-14
 5.95154E-14
 4.20323E-14
 4.90082E-14
 2.29488E-13
 2.29488E-13
 2.57624E-13
 2.79775E-15
 1.64805E-14
 2.14249E-14
 1.26037E-13
 6.67854E-14
 1.29515E-13
 2.32901E-14
 3.85136E-14
 4.90082E-14
 4.90082E-14
 0.00000E+00
