# vtk DataFile Version 2.0
Output of NLACE
ASCII
DATASET UNSTRUCTURED_GRID
POINTS           88 FLOAT
 6.000000E-01  2.500000E-01  0.000000E+00
 6.500000E-01  2.500000E-01  0.000000E+00
 7.000000E-01  2.500000E-01  0.000000E+00
 7.500000E-01  2.500000E-01  0.000000E+00
 8.000000E-01  2.500000E-01  0.000000E+00
 8.500000E-01  2.500000E-01  0.000000E+00
 9.000000E-01  2.500000E-01  0.000000E+00
 9.500000E-01  2.500000E-01  0.000000E+00
 6.000000E-01  3.000000E-01  0.000000E+00
 6.500000E-01  3.000000E-01  0.000000E+00
 7.000000E-01  3.000000E-01  0.000000E+00
 7.500000E-01  3.000000E-01  0.000000E+00
 8.000000E-01  3.000000E-01  0.000000E+00
 8.500000E-01  3.000000E-01  0.000000E+00
 9.000000E-01  3.000000E-01  0.000000E+00
 9.500000E-01  3.000000E-01  0.000000E+00
 6.000000E-01  3.500000E-01  0.000000E+00
 6.500000E-01  3.500000E-01  0.000000E+00
 7.000000E-01  3.500000E-01  0.000000E+00
 7.500000E-01  3.500000E-01  0.000000E+00
 8.000000E-01  3.500000E-01  0.000000E+00
 8.500000E-01  3.500000E-01  0.000000E+00
 9.000000E-01  3.500000E-01  0.000000E+00
 9.500000E-01  3.500000E-01  0.000000E+00
 6.000000E-01  4.000000E-01  0.000000E+00
 6.500000E-01  4.000000E-01  0.000000E+00
 7.000000E-01  4.000000E-01  0.000000E+00
 7.500000E-01  4.000000E-01  0.000000E+00
 8.000000E-01  4.000000E-01  0.000000E+00
 8.500000E-01  4.000000E-01  0.000000E+00
 9.000000E-01  4.000000E-01  0.000000E+00
 9.500000E-01  4.000000E-01  0.000000E+00
 6.000000E-01  4.500000E-01  0.000000E+00
 6.500000E-01  4.500000E-01  0.000000E+00
 7.000000E-01  4.500000E-01  0.000000E+00
 7.500000E-01  4.500000E-01  0.000000E+00
 8.000000E-01  4.500000E-01  0.000000E+00
 8.500000E-01  4.500000E-01  0.000000E+00
 9.000000E-01  4.500000E-01  0.000000E+00
 9.500000E-01  4.500000E-01  0.000000E+00
 6.000000E-01  5.000000E-01  0.000000E+00
 6.500000E-01  5.000000E-01  0.000000E+00
 7.000000E-01  5.000000E-01  0.000000E+00
 7.500000E-01  5.000000E-01  0.000000E+00
 8.000000E-01  5.000000E-01  0.000000E+00
 8.500000E-01  5.000000E-01  0.000000E+00
 9.000000E-01  5.000000E-01  0.000000E+00
 9.500000E-01  5.000000E-01  0.000000E+00
 6.000000E-01  5.500000E-01  0.000000E+00
 6.500000E-01  5.500000E-01  0.000000E+00
 7.000000E-01  5.500000E-01  0.000000E+00
 7.500000E-01  5.500000E-01  0.000000E+00
 8.000000E-01  5.500000E-01  0.000000E+00
 8.500000E-01  5.500000E-01  0.000000E+00
 9.000000E-01  5.500000E-01  0.000000E+00
 9.500000E-01  5.500000E-01  0.000000E+00
 6.000000E-01  6.000000E-01  0.000000E+00
 6.500000E-01  6.000000E-01  0.000000E+00
 7.000000E-01  6.000000E-01  0.000000E+00
 7.500000E-01  6.000000E-01  0.000000E+00
 8.000000E-01  6.000000E-01  0.000000E+00
 8.500000E-01  6.000000E-01  0.000000E+00
 9.000000E-01  6.000000E-01  0.000000E+00
 9.500000E-01  6.000000E-01  0.000000E+00
 6.000000E-01  6.500000E-01  0.000000E+00
 6.500000E-01  6.500000E-01  0.000000E+00
 7.000000E-01  6.500000E-01  0.000000E+00
 7.500000E-01  6.500000E-01  0.000000E+00
 8.000000E-01  6.500000E-01  0.000000E+00
 8.500000E-01  6.500000E-01  0.000000E+00
 9.000000E-01  6.500000E-01  0.000000E+00
 9.500000E-01  6.500000E-01  0.000000E+00
 6.000000E-01  7.000000E-01  0.000000E+00
 6.500000E-01  7.000000E-01  0.000000E+00
 7.000000E-01  7.000000E-01  0.000000E+00
 7.500000E-01  7.000000E-01  0.000000E+00
 8.000000E-01  7.000000E-01  0.000000E+00
 8.500000E-01  7.000000E-01  0.000000E+00
 9.000000E-01  7.000000E-01  0.000000E+00
 9.500000E-01  7.000000E-01  0.000000E+00
 6.000000E-01  7.500000E-01  0.000000E+00
 6.500000E-01  7.500000E-01  0.000000E+00
 7.000000E-01  7.500000E-01  0.000000E+00
 7.500000E-01  7.500000E-01  0.000000E+00
 8.000000E-01  7.500000E-01  0.000000E+00
 8.500000E-01  7.500000E-01  0.000000E+00
 9.000000E-01  7.500000E-01  0.000000E+00
 9.500000E-01  7.500000E-01  0.000000E+00
CELLS          140         560
           3           0           1           8
           3           1           9           8
           3           1           2           9
           3           2          10           9
           3           2           3          10
           3           3          11          10
           3           3           4          11
           3           4          12          11
           3           4           5          12
           3           5          13          12
           3           5           6          13
           3           6          14          13
           3           6           7          14
           3           7          15          14
           3           8           9          16
           3           9          17          16
           3           9          10          17
           3          10          18          17
           3          10          11          18
           3          11          19          18
           3          11          12          19
           3          12          20          19
           3          12          13          20
           3          13          21          20
           3          13          14          21
           3          14          22          21
           3          14          15          22
           3          15          23          22
           3          16          17          24
           3          17          25          24
           3          17          18          25
           3          18          26          25
           3          18          19          26
           3          19          27          26
           3          19          20          27
           3          20          28          27
           3          20          21          28
           3          21          29          28
           3          21          22          29
           3          22          30          29
           3          22          23          30
           3          23          31          30
           3          24          25          32
           3          25          33          32
           3          25          26          33
           3          26          34          33
           3          26          27          34
           3          27          35          34
           3          27          28          35
           3          28          36          35
           3          28          29          36
           3          29          37          36
           3          29          30          37
           3          30          38          37
           3          30          31          38
           3          31          39          38
           3          32          33          40
           3          33          41          40
           3          33          34          41
           3          34          42          41
           3          34          35          42
           3          35          43          42
           3          35          36          43
           3          36          44          43
           3          36          37          44
           3          37          45          44
           3          37          38          45
           3          38          46          45
           3          38          39          46
           3          39          47          46
           3          40          41          48
           3          41          49          48
           3          41          42          49
           3          42          50          49
           3          42          43          50
           3          43          51          50
           3          43          44          51
           3          44          52          51
           3          44          45          52
           3          45          53          52
           3          45          46          53
           3          46          54          53
           3          46          47          54
           3          47          55          54
           3          48          49          56
           3          49          57          56
           3          49          50          57
           3          50          58          57
           3          50          51          58
           3          51          59          58
           3          51          52          59
           3          52          60          59
           3          52          53          60
           3          53          61          60
           3          53          54          61
           3          54          62          61
           3          54          55          62
           3          55          63          62
           3          56          57          64
           3          57          65          64
           3          57          58          65
           3          58          66          65
           3          58          59          66
           3          59          67          66
           3          59          60          67
           3          60          68          67
           3          60          61          68
           3          61          69          68
           3          61          62          69
           3          62          70          69
           3          62          63          70
           3          63          71          70
           3          64          65          72
           3          65          73          72
           3          65          66          73
           3          66          74          73
           3          66          67          74
           3          67          75          74
           3          67          68          75
           3          68          76          75
           3          68          69          76
           3          69          77          76
           3          69          70          77
           3          70          78          77
           3          70          71          78
           3          71          79          78
           3          72          73          80
           3          73          81          80
           3          73          74          81
           3          74          82          81
           3          74          75          82
           3          75          83          82
           3          75          76          83
           3          76          84          83
           3          76          77          84
           3          77          85          84
           3          77          78          85
           3          78          86          85
           3          78          79          86
           3          79          87          86
CELL_TYPES          140
5
5
5
5
5
5
5
5
5
5
5
5
5
5
5
5
5
5
5
5
5
5
5
5
5
5
5
5
5
5
5
5
5
5
5
5
5
5
5
5
5
5
5
5
5
5
5
5
5
5
5
5
5
5
5
5
5
5
5
5
5
5
5
5
5
5
5
5
5
5
5
5
5
5
5
5
5
5
5
5
5
5
5
5
5
5
5
5
5
5
5
5
5
5
5
5
5
5
5
5
5
5
5
5
5
5
5
5
5
5
5
5
5
5
5
5
5
5
5
5
5
5
5
5
5
5
5
5
5
5
5
5
5
5
5
5
5
5
5
5
POINT_DATA           88
 SCALARS measuredDisp11 float  1                   
LOOKUP_TABLE default
 1.60000E-04
 2.36000E-04
 3.78000E-04
 5.10000E-04
 5.99000E-04
 7.16000E-04
 8.28000E-04
 9.85000E-04
 1.80000E-04
 2.39000E-04
 4.14000E-04
 4.16000E-04
 5.88000E-04
 7.34000E-04
 8.06000E-04
 9.81000E-04
 1.76000E-04
 3.33000E-04
 3.51000E-04
 3.74000E-04
 5.56000E-04
 6.67000E-04
 7.67000E-04
 8.85000E-04
 2.18000E-04
 3.55000E-04
 4.39000E-04
 5.02000E-04
 5.04000E-04
 5.75000E-04
 6.77000E-04
 7.85000E-04
 2.65000E-04
 4.09000E-04
 5.20000E-04
 5.11000E-04
 5.49000E-04
 5.82000E-04
 5.87000E-04
 8.10000E-04
 2.37000E-04
 3.57000E-04
 5.39000E-04
 4.27000E-04
 5.30000E-04
 6.13000E-04
 6.18000E-04
 6.40000E-04
 2.28000E-04
 3.42000E-04
 5.19000E-04
 4.62000E-04
 5.10000E-04
 6.02000E-04
 5.97000E-04
 8.01000E-04
 1.86000E-04
 3.10000E-04
 4.09000E-04
 5.36000E-04
 5.25000E-04
 5.93000E-04
 6.97000E-04
 7.79000E-04
 1.95000E-04
 2.72000E-04
 3.78000E-04
 4.81000E-04
 5.57000E-04
 6.59000E-04
 8.34000E-04
 8.67000E-04
 1.60000E-04
 2.57000E-04
 4.53000E-04
 4.60000E-04
 5.96000E-04
 7.29000E-04
 8.04000E-04
 9.40000E-04
 1.89000E-04
 2.52000E-04
 3.96000E-04
 4.41000E-04
 5.92000E-04
 7.39000E-04
 9.06000E-04
 9.78000E-04
 SCALARS measuredDisp12 float  1                   
LOOKUP_TABLE default
 1.52300E-03
 1.49400E-03
 1.47800E-03
 1.37500E-03
 1.37100E-03
 1.43200E-03
 1.39700E-03
 1.51600E-03
 1.38600E-03
 1.43000E-03
 1.32100E-03
 1.30900E-03
 1.23200E-03
 1.34200E-03
 1.36900E-03
 1.42900E-03
 1.33200E-03
 1.28300E-03
 1.24700E-03
 1.17400E-03
 1.18700E-03
 1.18400E-03
 1.29500E-03
 1.29500E-03
 1.24200E-03
 1.18800E-03
 1.17600E-03
 1.10000E-03
 1.03800E-03
 1.10900E-03
 1.10200E-03
 1.21700E-03
 1.17100E-03
 1.07600E-03
 1.04500E-03
 1.00900E-03
 1.10900E-03
 1.02900E-03
 1.06300E-03
 1.06500E-03
 1.01900E-03
 1.01900E-03
 1.02100E-03
 9.31000E-04
 1.04200E-03
 1.03900E-03
 9.84000E-04
 9.95000E-04
 8.93000E-04
 9.46000E-04
 9.82000E-04
 9.78000E-04
 9.54000E-04
 9.32000E-04
 9.23000E-04
 9.56000E-04
 7.84000E-04
 7.58000E-04
 8.28000E-04
 9.00000E-04
 8.74000E-04
 9.25000E-04
 9.24000E-04
 8.07000E-04
 6.60000E-04
 7.70000E-04
 8.23000E-04
 8.59000E-04
 8.85000E-04
 8.07000E-04
 7.87000E-04
 7.12000E-04
 6.24000E-04
 5.67000E-04
 6.54000E-04
 7.09000E-04
 7.34000E-04
 7.27000E-04
 6.30000E-04
 5.98000E-04
 5.12000E-04
 4.59000E-04
 5.47000E-04
 5.89000E-04
 5.95000E-04
 6.48000E-04
 5.20000E-04
 5.02000E-04
 SCALARS measuredDisp13 float  1                   
LOOKUP_TABLE default
 4.29600E-03
 4.18100E-03
 3.88600E-03
 3.35800E-03
 2.89100E-03
 2.65600E-03
 2.88000E-03
 3.45500E-03
 3.90000E-03
 4.22100E-03
 4.36400E-03
 4.57000E-03
 4.40600E-03
 4.19500E-03
 3.50900E-03
 2.40800E-03
 1.94000E-03
 2.46100E-03
 3.62000E-03
 4.16300E-03
 4.47600E-03
 4.46600E-03
 4.78600E-03
 4.80500E-03
 4.93700E-03
 4.25500E-03
 2.31600E-03
 1.88700E-03
 2.38500E-03
 4.28500E-03
 4.91200E-03
 4.83700E-03
 4.72200E-03
 4.96400E-03
 5.38100E-03
 6.06900E-03
 6.07100E-03
 4.27400E-03
 4.92200E-03
 4.25300E-03
 6.04200E-03
 5.92800E-03
 5.38200E-03
 4.95300E-03
 5.07000E-03
 5.52600E-03
 6.50000E-03
 6.48300E-03
 4.17200E-03
 4.60700E-03
 4.15100E-03
 6.49300E-03
 6.53600E-03
 5.54200E-03
 4.97000E-03
 4.91300E-03
 5.20500E-03
 5.77700E-03
 5.89600E-03
 4.72800E-03
 5.21500E-03
 4.68700E-03
 5.95300E-03
 5.91800E-03
 5.28800E-03
 4.83100E-03
 4.44600E-03
 4.59100E-03
 4.75900E-03
 4.39000E-03
 3.38200E-03
 3.30100E-03
 3.37800E-03
 4.42100E-03
 4.84600E-03
 4.59600E-03
 4.50300E-03
 4.02500E-03
 4.02900E-03
 4.05400E-03
 3.98400E-03
 3.87100E-03
 3.62800E-03
 3.77000E-03
 3.99600E-03
 4.05500E-03
 4.02200E-03
 4.00000E-03
 SCALARS predictedDisp11 float  1                  
LOOKUP_TABLE default
 1.91333E-04
 2.90097E-04
 3.78000E-04
 4.94140E-04
 6.31343E-04
 7.40584E-04
 8.67486E-04
 9.82885E-04
 2.10360E-04
 3.11997E-04
 4.15430E-04
 5.17638E-04
 6.20534E-04
 7.22917E-04
 8.20427E-04
 9.11996E-04
 2.30651E-04
 3.37154E-04
 4.38141E-04
 5.30611E-04
 6.17573E-04
 7.02622E-04
 7.87113E-04
 8.78627E-04
 2.73178E-04
 3.70671E-04
 4.63564E-04
 5.44966E-04
 6.17230E-04
 6.87495E-04
 7.60905E-04
 8.35895E-04
 3.17265E-04
 4.05582E-04
 4.86203E-04
 5.55437E-04
 6.18237E-04
 6.80797E-04
 7.47570E-04
 8.20356E-04
 3.43402E-04
 4.21688E-04
 4.95566E-04
 5.60340E-04
 6.21079E-04
 6.83640E-04
 7.53339E-04
 8.32686E-04
 3.24798E-04
 4.10732E-04
 4.89385E-04
 5.57980E-04
 6.22179E-04
 6.87552E-04
 7.57206E-04
 8.31114E-04
 2.85108E-04
 3.81118E-04
 4.70044E-04
 5.48823E-04
 6.21886E-04
 6.93964E-04
 7.70659E-04
 8.60246E-04
 2.25005E-04
 3.36253E-04
 4.42028E-04
 5.37160E-04
 6.25405E-04
 7.12562E-04
 8.04146E-04
 9.05749E-04
 1.83062E-04
 3.05559E-04
 4.18726E-04
 5.25576E-04
 6.28829E-04
 7.33251E-04
 8.35628E-04
 9.41460E-04
 1.95325E-04
 2.93752E-04
 3.83607E-04
 5.04688E-04
 6.21758E-04
 7.53951E-04
 8.84151E-04
 9.76710E-04
 SCALARS predictedDisp12 float  1                  
LOOKUP_TABLE default
 1.52300E-03
 1.49400E-03
 1.47800E-03
 1.37500E-03
 1.37100E-03
 1.43200E-03
 1.39700E-03
 1.51600E-03
 1.38600E-03
 1.38026E-03
 1.34965E-03
 1.29909E-03
 1.28933E-03
 1.31241E-03
 1.33571E-03
 1.42900E-03
 1.33200E-03
 1.27984E-03
 1.24005E-03
 1.20623E-03
 1.19574E-03
 1.20950E-03
 1.23993E-03
 1.29500E-03
 1.24200E-03
 1.18369E-03
 1.14564E-03
 1.12269E-03
 1.11757E-03
 1.12805E-03
 1.15408E-03
 1.21700E-03
 1.17100E-03
 1.09986E-03
 1.07065E-03
 1.05866E-03
 1.05725E-03
 1.06254E-03
 1.07055E-03
 1.06500E-03
 1.01900E-03
 1.00922E-03
 1.00219E-03
 9.99975E-04
 1.00102E-03
 1.00313E-03
 1.00352E-03
 9.95000E-04
 8.93000E-04
 9.20010E-04
 9.32185E-04
 9.39331E-04
 9.42768E-04
 9.42198E-04
 9.40203E-04
 9.56000E-04
 7.84000E-04
 8.28715E-04
 8.56826E-04
 8.73946E-04
 8.80461E-04
 8.76108E-04
 8.55413E-04
 8.07000E-04
 6.60000E-04
 7.22787E-04
 7.63166E-04
 7.89685E-04
 7.99903E-04
 7.93278E-04
 7.57156E-04
 7.12000E-04
 6.24000E-04
 6.08870E-04
 6.51361E-04
 6.85696E-04
 6.99506E-04
 7.03899E-04
 6.46336E-04
 5.98000E-04
 5.12000E-04
 4.59000E-04
 5.47000E-04
 5.89000E-04
 5.95000E-04
 6.48000E-04
 5.20000E-04
 5.02000E-04
 SCALARS predictedDisp13 float  1                  
LOOKUP_TABLE default
 4.38159E-03
 4.32624E-03
 4.09214E-03
 3.59157E-03
 3.40615E-03
 3.51750E-03
 3.40666E-03
 3.40854E-03
 4.17911E-03
 4.15420E-03
 4.01255E-03
 3.68598E-03
 3.62423E-03
 3.68400E-03
 3.67843E-03
 3.80654E-03
 3.99953E-03
 4.07152E-03
 4.03420E-03
 3.89115E-03
 3.86771E-03
 3.95454E-03
 4.06885E-03
 4.16778E-03
 4.16340E-03
 4.17786E-03
 4.10851E-03
 4.00104E-03
 3.98603E-03
 4.09606E-03
 4.28288E-03
 4.49037E-03
 4.66664E-03
 4.56800E-03
 4.29903E-03
 4.10420E-03
 4.04711E-03
 4.14678E-03
 4.37711E-03
 4.49710E-03
 5.12623E-03
 4.84859E-03
 4.47408E-03
 4.21006E-03
 4.08327E-03
 4.08107E-03
 4.13854E-03
 4.13517E-03
 5.04699E-03
 4.81804E-03
 4.50816E-03
 4.26214E-03
 4.12581E-03
 4.11316E-03
 4.19701E-03
 4.33478E-03
 4.79091E-03
 4.66993E-03
 4.47724E-03
 4.29256E-03
 4.18302E-03
 4.20316E-03
 4.37360E-03
 4.45668E-03
 4.44091E-03
 4.46531E-03
 4.43107E-03
 4.27621E-03
 4.14455E-03
 4.09969E-03
 4.22414E-03
 4.29002E-03
 4.43022E-03
 4.58882E-03
 4.44937E-03
 4.16373E-03
 3.95372E-03
 3.82878E-03
 4.05599E-03
 4.18088E-03
 4.72780E-03
 4.74985E-03
 4.40502E-03
 4.05014E-03
 3.75320E-03
 3.64170E-03
 3.99881E-03
 4.10222E-03
 SCALARS dual11 float  1                           
LOOKUP_TABLE default
 3.41270E-09
 3.05722E-09
 0.00000E+00
 1.49381E-09
 6.52705E-09
 1.21040E-08
 1.17520E-08
 1.01023E-08
 5.60640E-09
 3.94474E-09
 2.91577E-09
 3.35782E-09
 7.58631E-09
 8.76200E-09
 7.88095E-09
 9.05185E-09
 1.15057E-08
 1.08390E-08
 8.54727E-09
 7.00561E-09
 5.56286E-09
 3.17350E-09
 2.28030E-10
 1.36345E-09
 2.15360E-08
 1.91477E-08
 1.56150E-08
 1.11619E-08
 4.93717E-09
-3.84807E-09
-8.93209E-09
-1.31662E-08
 3.02116E-08
 2.62878E-08
 2.16614E-08
 1.42618E-08
 2.79881E-09
-7.96660E-09
-1.67642E-08
-2.46567E-08
 3.33941E-08
 2.78065E-08
 2.24805E-08
 1.38042E-08
 1.92156E-09
-8.51453E-09
-1.74480E-08
-2.74785E-08
 2.55940E-08
 2.13755E-08
 1.79104E-08
 1.07355E-08
 3.23552E-09
-3.28425E-09
-1.01881E-08
-1.90638E-08
 8.27555E-09
 8.24833E-09
 6.87634E-09
 5.18505E-09
 5.08210E-09
 4.73883E-09
 4.71498E-09
 3.53003E-09
-1.44089E-08
-1.23204E-08
-8.65451E-09
-1.82270E-09
 7.08158E-09
 1.74506E-08
 2.68184E-08
 3.42376E-08
-3.92975E-08
-3.05085E-08
-2.17587E-08
-7.16278E-09
 1.18819E-08
 3.06350E-08
 4.60169E-08
 5.79783E-08
-4.93750E-08
-3.93593E-08
-2.71986E-08
-7.76693E-09
 1.57653E-08
 3.70118E-08
 5.22130E-08
 6.48121E-08
 SCALARS dual12 float  1                           
LOOKUP_TABLE default
 0.00000E+00
 0.00000E+00
 0.00000E+00
 0.00000E+00
 0.00000E+00
 0.00000E+00
 0.00000E+00
 0.00000E+00
 0.00000E+00
 1.31465E-08
-5.18623E-09
-1.55745E-08
-2.67186E-08
-4.56654E-10
 1.42709E-08
 0.00000E+00
 0.00000E+00
 7.64195E-09
-2.70497E-09
-2.64546E-08
-3.19863E-08
-1.32377E-08
 1.02865E-08
 0.00000E+00
 0.00000E+00
 5.62198E-09
 2.44851E-10
-2.40013E-08
-2.96068E-08
-1.47614E-08
-9.89331E-09
 0.00000E+00
 0.00000E+00
 1.91402E-09
-7.81435E-10
-1.11496E-08
 5.03227E-09
 2.66434E-09
-1.22492E-09
 0.00000E+00
 0.00000E+00
 1.14048E-08
 1.75106E-08
 1.48077E-08
 3.39741E-08
 2.83383E-08
 9.67261E-09
 0.00000E+00
 0.00000E+00
 1.72866E-08
 3.56524E-08
 4.88875E-08
 5.42838E-08
 4.29626E-08
 2.39285E-08
 0.00000E+00
 0.00000E+00
 5.55039E-09
 3.91142E-08
 6.88647E-08
 7.39782E-08
 6.96365E-08
 4.88115E-08
 0.00000E+00
 0.00000E+00
 2.09695E-08
 5.74771E-08
 8.81670E-08
 9.61974E-08
 7.35144E-08
 4.31851E-08
 0.00000E+00
 0.00000E+00
 4.32076E-09
 3.16513E-08
 5.56969E-08
 6.05917E-08
 4.38611E-08
 1.79062E-08
 0.00000E+00
 0.00000E+00
 0.00000E+00
 0.00000E+00
 0.00000E+00
 0.00000E+00
 0.00000E+00
 0.00000E+00
 0.00000E+00
 SCALARS dual13 float  1                           
LOOKUP_TABLE default
-3.55760E-08
-4.19070E-08
-1.58563E-07
-2.98959E-07
-3.55024E-07
-2.37500E-07
-7.93684E-08
-3.51540E-08
-2.69434E-08
-5.93424E-08
-1.46659E-07
-2.42281E-07
-2.59777E-07
-1.86931E-07
-1.07177E-07
-8.46413E-08
-1.83083E-08
-2.58542E-08
-2.78551E-08
-4.34807E-08
-4.91911E-08
-7.53628E-08
-9.11221E-08
-8.58061E-08
 6.63924E-08
 8.46844E-08
 1.65028E-07
 2.70762E-07
 3.40497E-07
 2.46230E-07
 1.24302E-07
 9.57768E-08
 1.82712E-07
 2.56289E-07
 4.60981E-07
 7.06197E-07
 8.03406E-07
 6.53563E-07
 4.30653E-07
 3.11954E-07
 2.80837E-07
 3.89528E-07
 6.56135E-07
 9.26774E-07
 9.76262E-07
 8.12318E-07
 5.75781E-07
 4.40801E-07
 2.14960E-07
 2.97792E-07
 5.41851E-07
 7.94864E-07
 8.41935E-07
 7.49480E-07
 5.70156E-07
 4.43790E-07
 5.99290E-08
 1.30413E-07
 2.87769E-07
 4.30303E-07
 4.68156E-07
 3.88181E-07
 2.45945E-07
 1.81463E-07
-9.33317E-08
-1.15589E-07
-1.75181E-07
-2.18840E-07
-2.47090E-07
-2.55054E-07
-2.17034E-07
-1.57464E-07
-3.20350E-07
-4.15826E-07
-6.36268E-07
-8.25064E-07
-8.69093E-07
-7.46025E-07
-5.27683E-07
-3.82665E-07
-3.75492E-07
-5.27590E-07
-8.41854E-07
-1.08079E-06
-1.09554E-06
-8.84336E-07
-5.89161E-07
-4.43585E-07
 SCALARS property1 float  1                        
LOOKUP_TABLE default
 0.00000E+00
 0.00000E+00
 0.00000E+00
 0.00000E+00
 0.00000E+00
 0.00000E+00
 0.00000E+00
 0.00000E+00
 0.00000E+00
 0.00000E+00
 0.00000E+00
 0.00000E+00
 0.00000E+00
 0.00000E+00
 0.00000E+00
 0.00000E+00
 0.00000E+00
 0.00000E+00
 0.00000E+00
 0.00000E+00
 0.00000E+00
 0.00000E+00
 0.00000E+00
 0.00000E+00
 0.00000E+00
 0.00000E+00
 0.00000E+00
 0.00000E+00
 0.00000E+00
 0.00000E+00
 0.00000E+00
 0.00000E+00
 0.00000E+00
 0.00000E+00
 0.00000E+00
 0.00000E+00
 0.00000E+00
 0.00000E+00
 0.00000E+00
 0.00000E+00
 0.00000E+00
 0.00000E+00
 0.00000E+00
 0.00000E+00
 0.00000E+00
 0.00000E+00
 0.00000E+00
 0.00000E+00
 0.00000E+00
 0.00000E+00
 0.00000E+00
 0.00000E+00
 0.00000E+00
 0.00000E+00
 0.00000E+00
 0.00000E+00
 0.00000E+00
 0.00000E+00
 0.00000E+00
 0.00000E+00
 0.00000E+00
 0.00000E+00
 0.00000E+00
 0.00000E+00
 0.00000E+00
 0.00000E+00
 0.00000E+00
 0.00000E+00
 0.00000E+00
 0.00000E+00
 0.00000E+00
 0.00000E+00
 0.00000E+00
 0.00000E+00
 0.00000E+00
 0.00000E+00
 0.00000E+00
 0.00000E+00
 0.00000E+00
 0.00000E+00
 0.00000E+00
 0.00000E+00
 0.00000E+00
 0.00000E+00
 0.00000E+00
 0.00000E+00
 0.00000E+00
 0.00000E+00
 SCALARS property2 float  1                        
LOOKUP_TABLE default
 1.00734E+00
 1.00387E+00
 1.01778E+00
 1.00000E+00
 1.00000E+00
 1.00860E+00
 1.00000E+00
 1.01206E+00
 1.01140E+00
 1.04173E+00
 1.00635E+00
 1.00201E+00
 1.00818E+00
 1.00000E+00
 1.04245E+00
 1.00000E+00
 1.02677E+00
 1.04079E+00
 1.06513E+00
 1.03156E+00
 1.02803E+00
 1.02379E+00
 1.01724E+00
 1.01494E+00
 1.14826E+00
 1.18006E+00
 1.23689E+00
 1.35134E+00
 1.44882E+00
 1.37696E+00
 1.26629E+00
 1.21987E+00
 1.26592E+00
 1.32605E+00
 1.48756E+00
 1.61652E+00
 1.65628E+00
 1.60414E+00
 1.46111E+00
 1.37602E+00
 1.32436E+00
 1.36706E+00
 1.54861E+00
 1.65592E+00
 1.66118E+00
 1.60368E+00
 1.49870E+00
 1.41467E+00
 1.29132E+00
 1.32958E+00
 1.47406E+00
 1.60736E+00
 1.60293E+00
 1.55117E+00
 1.49516E+00
 1.33243E+00
 1.15802E+00
 1.21062E+00
 1.34267E+00
 1.43055E+00
 1.43924E+00
 1.36281E+00
 1.17139E+00
 1.06536E+00
 1.01821E+00
 1.00968E+00
 1.00000E+00
 1.00207E+00
 1.00000E+00
 1.00000E+00
 1.00000E+00
 1.00000E+00
 1.00000E+00
 1.00000E+00
 1.00000E+00
 1.00000E+00
 1.00000E+00
 1.00000E+00
 1.00000E+00
 1.00000E+00
 1.00000E+00
 1.00000E+00
 1.00000E+00
 1.00000E+00
 1.00000E+00
 1.00000E+00
 1.00000E+00
 1.00000E+00
 SCALARS gradient1 float  1                        
LOOKUP_TABLE default
 0.00000E+00
 0.00000E+00
 0.00000E+00
 0.00000E+00
 0.00000E+00
 0.00000E+00
 0.00000E+00
 0.00000E+00
 0.00000E+00
 0.00000E+00
 0.00000E+00
 0.00000E+00
 0.00000E+00
 0.00000E+00
 0.00000E+00
 0.00000E+00
 0.00000E+00
 0.00000E+00
 0.00000E+00
 0.00000E+00
 0.00000E+00
 0.00000E+00
 0.00000E+00
 0.00000E+00
 0.00000E+00
 0.00000E+00
 0.00000E+00
 0.00000E+00
 0.00000E+00
 0.00000E+00
 0.00000E+00
 0.00000E+00
 0.00000E+00
 0.00000E+00
 0.00000E+00
 0.00000E+00
 0.00000E+00
 0.00000E+00
 0.00000E+00
 0.00000E+00
 0.00000E+00
 0.00000E+00
 0.00000E+00
 0.00000E+00
 0.00000E+00
 0.00000E+00
 0.00000E+00
 0.00000E+00
 0.00000E+00
 0.00000E+00
 0.00000E+00
 0.00000E+00
 0.00000E+00
 0.00000E+00
 0.00000E+00
 0.00000E+00
 0.00000E+00
 0.00000E+00
 0.00000E+00
 0.00000E+00
 0.00000E+00
 0.00000E+00
 0.00000E+00
 0.00000E+00
 0.00000E+00
 0.00000E+00
 0.00000E+00
 0.00000E+00
 0.00000E+00
 0.00000E+00
 0.00000E+00
 0.00000E+00
 0.00000E+00
 0.00000E+00
 0.00000E+00
 0.00000E+00
 0.00000E+00
 0.00000E+00
 0.00000E+00
 0.00000E+00
 0.00000E+00
 0.00000E+00
 0.00000E+00
 0.00000E+00
 0.00000E+00
 0.00000E+00
 0.00000E+00
 0.00000E+00
 SCALARS gradient2 float  1                        
LOOKUP_TABLE default
-1.57099E-13
-4.48088E-12
 2.33426E-12
-1.42935E-12
-1.26636E-13
 4.68113E-12
-4.16283E-12
 1.93567E-13
-2.03206E-12
 5.93122E-12
-3.89823E-12
 3.53197E-13
 4.68606E-12
-6.26684E-12
 7.64264E-12
-3.95551E-12
-2.02276E-12
-1.90652E-12
 1.63908E-12
-8.10815E-13
 1.66535E-13
-1.00102E-13
-3.52250E-12
 1.64068E-13
-8.20260E-13
-6.22432E-13
-5.82211E-13
-1.14038E-12
-1.38162E-12
-1.28620E-12
-7.97110E-13
-1.13654E-12
-1.42705E-12
-5.66639E-13
-7.02273E-13
-2.32676E-12
-6.84226E-13
-9.51261E-13
-1.53257E-12
-2.06748E-12
-1.04660E-12
-3.06645E-13
-7.63519E-13
-4.69004E-13
 1.87632E-12
-1.89380E-12
-1.55178E-12
-2.34060E-12
-1.38689E-12
-6.27037E-13
-1.55379E-12
-7.64462E-13
-1.75518E-12
-2.08715E-12
-1.46516E-12
-2.17442E-12
-7.46874E-13
-8.48636E-13
-1.05678E-12
-2.01800E-12
-2.22387E-12
-2.04194E-12
-9.90038E-13
-5.71041E-13
 1.22610E-13
 6.04453E-13
-2.70428E-12
 4.72288E-12
 3.94017E-13
 2.18854E-12
 2.33870E-12
 5.71506E-13
 4.04346E-13
 2.81938E-12
 7.75001E-12
 9.38095E-12
 1.30132E-11
 1.04474E-11
 7.05827E-12
 1.96029E-12
 1.04542E-12
 2.67336E-12
 5.56614E-12
 8.14892E-12
 7.84110E-12
 4.88706E-12
 2.84620E-12
 4.04333E-13
CELL_DATA         140
SCALARS elemDataMatch  float  1
LOOKUP_TABLE default
 0.00000E+00
 2.57674E-13
 2.57674E-13
 1.94743E-13
 8.54813E-14
 6.61426E-14
 1.02237E-14
 2.93437E-13
 3.42377E-13
 2.56871E-13
 9.11748E-14
 3.09205E-13
 1.15439E-13
 1.15439E-13
 2.57674E-13
 2.75103E-13
 2.02733E-13
 6.36736E-14
 5.76100E-14
 7.40282E-14
 5.60822E-13
 7.32545E-13
 2.90102E-13
 8.45613E-14
 2.09930E-13
 4.55329E-13
 6.22291E-13
 3.15891E-13
 1.04210E-15
 4.39512E-15
 1.48246E-14
 1.41679E-13
 1.05955E-13
 1.60345E-13
 2.96003E-13
 1.00239E-12
 1.04226E-12
 1.18488E-12
 2.16472E-13
 3.31519E-13
 2.99661E-13
 2.82499E-13
 1.93353E-15
 5.05313E-14
 8.47111E-14
 1.31012E-13
 1.25930E-13
 6.89794E-13
 1.68726E-12
 9.10413E-13
 6.02554E-13
 2.16998E-13
 7.89325E-13
 6.54951E-13
 3.29411E-13
 5.94193E-15
 5.93062E-14
 4.49626E-14
 1.51102E-13
 5.81124E-14
 3.47409E-13
 9.13737E-13
 7.48764E-13
 5.04078E-13
 4.67925E-13
 3.10751E-13
 1.30013E-13
 9.38760E-14
 6.09978E-14
 3.96975E-14
 9.95777E-15
 1.06790E-13
 2.13720E-13
 6.49095E-13
 3.95471E-13
 4.74738E-13
 4.19048E-13
 6.02030E-13
 5.65118E-13
 1.49955E-13
 9.42618E-14
 1.55355E-13
 1.05508E-13
 3.08276E-14
 7.03627E-14
 3.99814E-13
 4.26226E-13
 5.61762E-13
 4.35768E-13
 2.23625E-13
 4.20281E-13
 9.35905E-14
 1.56959E-14
 1.86201E-13
 1.69384E-13
 9.08636E-13
 3.97944E-13
 4.90024E-13
 5.20898E-13
 4.05316E-13
 5.62443E-13
 6.64523E-13
 4.34690E-13
 1.72666E-12
 6.99472E-13
 1.76966E-12
 1.35089E-12
 1.64786E-12
 1.27587E-12
 9.56342E-13
 7.96026E-13
 9.27792E-14
 2.32199E-13
 2.08894E-13
 6.15131E-13
 3.00245E-13
 1.34166E-12
 7.51487E-13
 2.30063E-12
 1.53090E-12
 1.37459E-12
 3.64473E-13
 3.15479E-13
 1.57887E-13
 6.97925E-14
 2.77967E-14
 1.82614E-13
 1.82614E-13
 1.71831E-13
 7.25227E-16
 6.36988E-14
 5.65685E-14
 2.64240E-13
 1.23939E-13
 2.62530E-13
 5.55880E-14
 4.40762E-14
 2.77967E-14
 2.77967E-14
 0.00000E+00
SCALARS elemRegul  float  1
LOOKUP_TABLE default
 6.68421E-15
 6.06290E-14
 5.04116E-14
 4.64676E-14
 2.64232E-14
 5.98986E-15
 2.53434E-15
 1.28131E-14
 1.48404E-14
 1.48404E-14
 1.52046E-14
 7.50432E-14
 5.51640E-14
 5.51640E-14
 4.24967E-14
 1.75695E-14
 4.42329E-14
 7.95202E-14
 7.36716E-14
 5.59030E-14
 3.77378E-14
 2.52014E-14
 2.68362E-14
 3.02026E-14
 6.08255E-14
 3.25665E-14
 6.17190E-14
 1.88960E-14
 1.52865E-13
 1.78569E-13
 1.76725E-13
 2.26147E-13
 2.18763E-13
 4.24550E-13
 3.99745E-13
 5.39922E-13
 5.26019E-13
 4.50518E-13
 4.41548E-13
 3.40671E-13
 3.11329E-13
 2.62648E-13
 1.52353E-13
 1.97357E-13
 1.95821E-13
 3.72737E-13
 3.44445E-13
 3.68593E-13
 3.53161E-13
 2.64035E-13
 2.74433E-13
 2.91350E-13
 3.15873E-13
 3.02106E-13
 2.50344E-13
 2.22292E-13
 1.04819E-13
 7.40062E-14
 2.08290E-13
 2.39428E-13
 1.78357E-13
 1.42887E-13
 6.99646E-14
 8.99217E-15
 6.54630E-14
 7.18699E-14
 1.78785E-13
 1.39386E-13
 1.16275E-13
 1.15619E-13
 6.74891E-14
 6.69504E-14
 2.31724E-13
 2.03225E-13
 1.63326E-13
 1.77337E-13
 6.10478E-14
 7.30230E-14
 1.02306E-13
 9.21719E-14
 1.46729E-13
 7.01418E-14
 1.05138E-13
 2.27921E-13
 1.73348E-13
 1.62584E-13
 2.33937E-13
 2.32847E-13
 2.33966E-13
 2.46812E-13
 2.21087E-13
 2.04901E-13
 2.14599E-13