# vtk DataFile Version 2.0
Output of NLACE
ASCII
DATASET UNSTRUCTURED_GRID
POINTS          216 FLOAT
 0.000000E+00  0.000000E+00  0.000000E+00
 2.000000E+00  0.000000E+00  0.000000E+00
 4.000000E+00  0.000000E+00  0.000000E+00
 6.000000E+00  0.000000E+00  0.000000E+00
 8.000000E+00  0.000000E+00  0.000000E+00
 1.000000E+01  0.000000E+00  0.000000E+00
 0.000000E+00  2.000000E+00  0.000000E+00
 2.000000E+00  2.000000E+00  0.000000E+00
 4.000000E+00  2.000000E+00  0.000000E+00
 6.000000E+00  2.000000E+00  0.000000E+00
 8.000000E+00  2.000000E+00  0.000000E+00
 1.000000E+01  2.000000E+00  0.000000E+00
 0.000000E+00  4.000000E+00  0.000000E+00
 2.000000E+00  4.000000E+00  0.000000E+00
 4.000000E+00  4.000000E+00  0.000000E+00
 6.000000E+00  4.000000E+00  0.000000E+00
 8.000000E+00  4.000000E+00  0.000000E+00
 1.000000E+01  4.000000E+00  0.000000E+00
 0.000000E+00  6.000000E+00  0.000000E+00
 2.000000E+00  6.000000E+00  0.000000E+00
 4.000000E+00  6.000000E+00  0.000000E+00
 6.000000E+00  6.000000E+00  0.000000E+00
 8.000000E+00  6.000000E+00  0.000000E+00
 1.000000E+01  6.000000E+00  0.000000E+00
 0.000000E+00  8.000000E+00  0.000000E+00
 2.000000E+00  8.000000E+00  0.000000E+00
 4.000000E+00  8.000000E+00  0.000000E+00
 6.000000E+00  8.000000E+00  0.000000E+00
 8.000000E+00  8.000000E+00  0.000000E+00
 1.000000E+01  8.000000E+00  0.000000E+00
 0.000000E+00  1.000000E+01  0.000000E+00
 2.000000E+00  1.000000E+01  0.000000E+00
 4.000000E+00  1.000000E+01  0.000000E+00
 6.000000E+00  1.000000E+01  0.000000E+00
 8.000000E+00  1.000000E+01  0.000000E+00
 1.000000E+01  1.000000E+01  0.000000E+00
 0.000000E+00  0.000000E+00 -2.000000E+00
 2.000000E+00  0.000000E+00 -2.000000E+00
 4.000000E+00  0.000000E+00 -2.000000E+00
 6.000000E+00  0.000000E+00 -2.000000E+00
 8.000000E+00  0.000000E+00 -2.000000E+00
 1.000000E+01  0.000000E+00 -2.000000E+00
 0.000000E+00  2.000000E+00 -2.000000E+00
 2.000000E+00  2.000000E+00 -2.000000E+00
 4.000000E+00  2.000000E+00 -2.000000E+00
 6.000000E+00  2.000000E+00 -2.000000E+00
 8.000000E+00  2.000000E+00 -2.000000E+00
 1.000000E+01  2.000000E+00 -2.000000E+00
 0.000000E+00  4.000000E+00 -2.000000E+00
 2.000000E+00  4.000000E+00 -2.000000E+00
 4.000000E+00  4.000000E+00 -2.000000E+00
 6.000000E+00  4.000000E+00 -2.000000E+00
 8.000000E+00  4.000000E+00 -2.000000E+00
 1.000000E+01  4.000000E+00 -2.000000E+00
 0.000000E+00  6.000000E+00 -2.000000E+00
 2.000000E+00  6.000000E+00 -2.000000E+00
 4.000000E+00  6.000000E+00 -2.000000E+00
 6.000000E+00  6.000000E+00 -2.000000E+00
 8.000000E+00  6.000000E+00 -2.000000E+00
 1.000000E+01  6.000000E+00 -2.000000E+00
 0.000000E+00  8.000000E+00 -2.000000E+00
 2.000000E+00  8.000000E+00 -2.000000E+00
 4.000000E+00  8.000000E+00 -2.000000E+00
 6.000000E+00  8.000000E+00 -2.000000E+00
 8.000000E+00  8.000000E+00 -2.000000E+00
 1.000000E+01  8.000000E+00 -2.000000E+00
 0.000000E+00  1.000000E+01 -2.000000E+00
 2.000000E+00  1.000000E+01 -2.000000E+00
 4.000000E+00  1.000000E+01 -2.000000E+00
 6.000000E+00  1.000000E+01 -2.000000E+00
 8.000000E+00  1.000000E+01 -2.000000E+00
 1.000000E+01  1.000000E+01 -2.000000E+00
 0.000000E+00  0.000000E+00 -4.000000E+00
 2.000000E+00  0.000000E+00 -4.000000E+00
 4.000000E+00  0.000000E+00 -4.000000E+00
 6.000000E+00  0.000000E+00 -4.000000E+00
 8.000000E+00  0.000000E+00 -4.000000E+00
 1.000000E+01  0.000000E+00 -4.000000E+00
 0.000000E+00  2.000000E+00 -4.000000E+00
 2.000000E+00  2.000000E+00 -4.000000E+00
 4.000000E+00  2.000000E+00 -4.000000E+00
 6.000000E+00  2.000000E+00 -4.000000E+00
 8.000000E+00  2.000000E+00 -4.000000E+00
 1.000000E+01  2.000000E+00 -4.000000E+00
 0.000000E+00  4.000000E+00 -4.000000E+00
 2.000000E+00  4.000000E+00 -4.000000E+00
 4.000000E+00  4.000000E+00 -4.000000E+00
 6.000000E+00  4.000000E+00 -4.000000E+00
 8.000000E+00  4.000000E+00 -4.000000E+00
 1.000000E+01  4.000000E+00 -4.000000E+00
 0.000000E+00  6.000000E+00 -4.000000E+00
 2.000000E+00  6.000000E+00 -4.000000E+00
 4.000000E+00  6.000000E+00 -4.000000E+00
 6.000000E+00  6.000000E+00 -4.000000E+00
 8.000000E+00  6.000000E+00 -4.000000E+00
 1.000000E+01  6.000000E+00 -4.000000E+00
 0.000000E+00  8.000000E+00 -4.000000E+00
 2.000000E+00  8.000000E+00 -4.000000E+00
 4.000000E+00  8.000000E+00 -4.000000E+00
 6.000000E+00  8.000000E+00 -4.000000E+00
 8.000000E+00  8.000000E+00 -4.000000E+00
 1.000000E+01  8.000000E+00 -4.000000E+00
 0.000000E+00  1.000000E+01 -4.000000E+00
 2.000000E+00  1.000000E+01 -4.000000E+00
 4.000000E+00  1.000000E+01 -4.000000E+00
 6.000000E+00  1.000000E+01 -4.000000E+00
 8.000000E+00  1.000000E+01 -4.000000E+00
 1.000000E+01  1.000000E+01 -4.000000E+00
 0.000000E+00  0.000000E+00 -6.000000E+00
 2.000000E+00  0.000000E+00 -6.000000E+00
 4.000000E+00  0.000000E+00 -6.000000E+00
 6.000000E+00  0.000000E+00 -6.000000E+00
 8.000000E+00  0.000000E+00 -6.000000E+00
 1.000000E+01  0.000000E+00 -6.000000E+00
 0.000000E+00  2.000000E+00 -6.000000E+00
 2.000000E+00  2.000000E+00 -6.000000E+00
 4.000000E+00  2.000000E+00 -6.000000E+00
 6.000000E+00  2.000000E+00 -6.000000E+00
 8.000000E+00  2.000000E+00 -6.000000E+00
 1.000000E+01  2.000000E+00 -6.000000E+00
 0.000000E+00  4.000000E+00 -6.000000E+00
 2.000000E+00  4.000000E+00 -6.000000E+00
 4.000000E+00  4.000000E+00 -6.000000E+00
 6.000000E+00  4.000000E+00 -6.000000E+00
 8.000000E+00  4.000000E+00 -6.000000E+00
 1.000000E+01  4.000000E+00 -6.000000E+00
 0.000000E+00  6.000000E+00 -6.000000E+00
 2.000000E+00  6.000000E+00 -6.000000E+00
 4.000000E+00  6.000000E+00 -6.000000E+00
 6.000000E+00  6.000000E+00 -6.000000E+00
 8.000000E+00  6.000000E+00 -6.000000E+00
 1.000000E+01  6.000000E+00 -6.000000E+00
 0.000000E+00  8.000000E+00 -6.000000E+00
 2.000000E+00  8.000000E+00 -6.000000E+00
 4.000000E+00  8.000000E+00 -6.000000E+00
 6.000000E+00  8.000000E+00 -6.000000E+00
 8.000000E+00  8.000000E+00 -6.000000E+00
 1.000000E+01  8.000000E+00 -6.000000E+00
 0.000000E+00  1.000000E+01 -6.000000E+00
 2.000000E+00  1.000000E+01 -6.000000E+00
 4.000000E+00  1.000000E+01 -6.000000E+00
 6.000000E+00  1.000000E+01 -6.000000E+00
 8.000000E+00  1.000000E+01 -6.000000E+00
 1.000000E+01  1.000000E+01 -6.000000E+00
 0.000000E+00  0.000000E+00 -8.000000E+00
 2.000000E+00  0.000000E+00 -8.000000E+00
 4.000000E+00  0.000000E+00 -8.000000E+00
 6.000000E+00  0.000000E+00 -8.000000E+00
 8.000000E+00  0.000000E+00 -8.000000E+00
 1.000000E+01  0.000000E+00 -8.000000E+00
 0.000000E+00  2.000000E+00 -8.000000E+00
 2.000000E+00  2.000000E+00 -8.000000E+00
 4.000000E+00  2.000000E+00 -8.000000E+00
 6.000000E+00  2.000000E+00 -8.000000E+00
 8.000000E+00  2.000000E+00 -8.000000E+00
 1.000000E+01  2.000000E+00 -8.000000E+00
 0.000000E+00  4.000000E+00 -8.000000E+00
 2.000000E+00  4.000000E+00 -8.000000E+00
 4.000000E+00  4.000000E+00 -8.000000E+00
 6.000000E+00  4.000000E+00 -8.000000E+00
 8.000000E+00  4.000000E+00 -8.000000E+00
 1.000000E+01  4.000000E+00 -8.000000E+00
 0.000000E+00  6.000000E+00 -8.000000E+00
 2.000000E+00  6.000000E+00 -8.000000E+00
 4.000000E+00  6.000000E+00 -8.000000E+00
 6.000000E+00  6.000000E+00 -8.000000E+00
 8.000000E+00  6.000000E+00 -8.000000E+00
 1.000000E+01  6.000000E+00 -8.000000E+00
 0.000000E+00  8.000000E+00 -8.000000E+00
 2.000000E+00  8.000000E+00 -8.000000E+00
 4.000000E+00  8.000000E+00 -8.000000E+00
 6.000000E+00  8.000000E+00 -8.000000E+00
 8.000000E+00  8.000000E+00 -8.000000E+00
 1.000000E+01  8.000000E+00 -8.000000E+00
 0.000000E+00  1.000000E+01 -8.000000E+00
 2.000000E+00  1.000000E+01 -8.000000E+00
 4.000000E+00  1.000000E+01 -8.000000E+00
 6.000000E+00  1.000000E+01 -8.000000E+00
 8.000000E+00  1.000000E+01 -8.000000E+00
 1.000000E+01  1.000000E+01 -8.000000E+00
 0.000000E+00  0.000000E+00 -1.000000E+01
 2.000000E+00  0.000000E+00 -1.000000E+01
 4.000000E+00  0.000000E+00 -1.000000E+01
 6.000000E+00  0.000000E+00 -1.000000E+01
 8.000000E+00  0.000000E+00 -1.000000E+01
 1.000000E+01  0.000000E+00 -1.000000E+01
 0.000000E+00  2.000000E+00 -1.000000E+01
 2.000000E+00  2.000000E+00 -1.000000E+01
 4.000000E+00  2.000000E+00 -1.000000E+01
 6.000000E+00  2.000000E+00 -1.000000E+01
 8.000000E+00  2.000000E+00 -1.000000E+01
 1.000000E+01  2.000000E+00 -1.000000E+01
 0.000000E+00  4.000000E+00 -1.000000E+01
 2.000000E+00  4.000000E+00 -1.000000E+01
 4.000000E+00  4.000000E+00 -1.000000E+01
 6.000000E+00  4.000000E+00 -1.000000E+01
 8.000000E+00  4.000000E+00 -1.000000E+01
 1.000000E+01  4.000000E+00 -1.000000E+01
 0.000000E+00  6.000000E+00 -1.000000E+01
 2.000000E+00  6.000000E+00 -1.000000E+01
 4.000000E+00  6.000000E+00 -1.000000E+01
 6.000000E+00  6.000000E+00 -1.000000E+01
 8.000000E+00  6.000000E+00 -1.000000E+01
 1.000000E+01  6.000000E+00 -1.000000E+01
 0.000000E+00  8.000000E+00 -1.000000E+01
 2.000000E+00  8.000000E+00 -1.000000E+01
 4.000000E+00  8.000000E+00 -1.000000E+01
 6.000000E+00  8.000000E+00 -1.000000E+01
 8.000000E+00  8.000000E+00 -1.000000E+01
 1.000000E+01  8.000000E+00 -1.000000E+01
 0.000000E+00  1.000000E+01 -1.000000E+01
 2.000000E+00  1.000000E+01 -1.000000E+01
 4.000000E+00  1.000000E+01 -1.000000E+01
 6.000000E+00  1.000000E+01 -1.000000E+01
 8.000000E+00  1.000000E+01 -1.000000E+01
 1.000000E+01  1.000000E+01 -1.000000E+01
CELLS          625        3125
4    0   36   42   37
4    7   42   43   37
4    7   42   37    0
4    7    0    6   42
4    1    0    7   37
4    7   37   43   44
4    2   37   44   38
4    2   37    7   44
4    1   37    7    2
4    8    7   44    2
4    2   38   44   39
4    9   44   45   39
4    9   44   39    2
4    9    2    8   44
4    3    2    9   39
4    9   39   45   46
4    4   39   46   40
4    4   39    9   46
4    3   39    9    4
4   10    9   46    4
4    4   40   46   41
4   11   46   47   41
4   11   46   41    4
4   11    4   10   46
4    5    4   11   41
4   12   42   48   49
4    7   42   49   43
4    7   42   12   49
4    6   42   12    7
4   13   12   49    7
4    7   43   49   44
4   14   49   50   44
4   14   49   44    7
4   14    7   13   49
4    8    7   14   44
4   14   44   50   51
[...]
POINT_DATA          216
 SCALARS measuredDisp11 float  1                   
LOOKUP_TABLE default
 0.00000E+00
 1.04687E-01
 2.09374E-01
 3.14061E-01
 4.18748E-01
 5.23435E-01
 0.00000E+00
 1.04687E-01
 2.09374E-01
 3.14061E-01
 4.18748E-01
 5.23435E-01
 0.00000E+00
 1.04687E-01
 2.09374E-01
 3.14061E-01
 4.18748E-01
 5.23435E-01
 0.00000E+00
 1.04687E-01
 2.09374E-01
 3.14061E-01
 4.18748E-01
 5.23435E-01
 0.00000E+00
 1.04687E-01
 2.09374E-01
 3.14061E-01
 4.18748E-01
 5.23435E-01
 0.00000E+00
 1.04687E-01
 2.09374E-01
 3.14061E-01
 4.18748E-01
 5.23435E-01
 0.00000E+00
 1.04687E-01
 2.09374E-01
 3.14061E-01
 4.18748E-01
 5.23435E-01
 0.00000E+00
 1.04687E-01
 2.09374E-01
 3.14061E-01
 4.18748E-01
 5.23435E-01
 0.00000E+00
 1.04687E-01
 2.09374E-01
 3.14061E-01
 4.18748E-01
 5.23435E-01
 0.00000E+00
 1.04687E-01
 2.09374E-01
 3.14061E-01
 4.18748E-01
 5.23435E-01
 0.00000E+00
 1.04687E-01
 2.09374E-01
 3.14061E-01
 4.18748E-01
 5.23435E-01
 0.00000E+00
 1.04687E-01
 2.09374E-01
 3.14061E-01
 4.18748E-01
 5.23435E-01
 0.00000E+00
 1.04687E-01
 2.09374E-01
 3.14061E-01
 4.18748E-01
 5.23435E-01
 0.00000E+00
 1.04687E-01
 2.09374E-01
 3.14061E-01
 4.18748E-01
 5.23435E-01
 0.00000E+00
 1.04687E-01
 2.09374E-01
 3.14061E-01
 4.18748E-01
 5.23435E-01
 0.00000E+00
 1.04687E-01
 2.09374E-01
 3.14061E-01
 4.18748E-01
 5.23435E-01
 0.00000E+00
 1.04687E-01
 2.09374E-01
 3.14061E-01
 4.18748E-01
 5.23435E-01
 0.00000E+00
 1.04687E-01
 2.09374E-01
 3.14061E-01
 4.18748E-01
 5.23435E-01
 0.00000E+00
 1.04687E-01
 2.09374E-01
 3.14061E-01
 4.18748E-01
 5.23435E-01
 0.00000E+00
 1.04687E-01
 2.09374E-01
 3.14061E-01
 4.18748E-01
 5.23435E-01
 0.00000E+00
 1.04687E-01
 2.09374E-01
 3.14061E-01
 4.18748E-01
 5.23435E-01
 0.00000E+00
 1.04687E-01
 2.09374E-01
 3.14061E-01
 4.18748E-01
 5.23435E-01
 0.00000E+00
 1.04687E-01
 2.09374E-01
 3.14061E-01
 4.18748E-01
 5.23435E-01
 0.00000E+00
 1.04687E-01
 2.09374E-01
 3.14061E-01
 4.18748E-01
 5.23435E-01
 0.00000E+00
 1.04687E-01
 2.09374E-01
 3.14061E-01
 4.18748E-01
 5.23435E-01
 0.00000E+00
 1.04687E-01
 2.09374E-01
 3.14061E-01
 4.18748E-01
 5.23435E-01
 0.00000E+00
 1.04687E-01
 2.09374E-01
 3.14061E-01
 4.18748E-01
 5.23435E-01
 0.00000E+00
 1.04687E-01
 2.09374E-01
 3.14061E-01
 4.18748E-01
 5.23435E-01
 0.00000E+00
 1.04687E-01
 2.09374E-01
 3.14061E-01
 4.18748E-01
 5.23435E-01
 0.00000E+00
 1.04687E-01
 2.09374E-01
 3.14061E-01
 4.18748E-01
 5.23435E-01
 0.00000E+00
 1.04687E-01
 2.09374E-01
 3.14061E-01
 4.18748E-01
 5.23435E-01
 0.00000E+00
 1.04687E-01
 2.09374E-01
 3.14061E-01
 4.18748E-01
 5.23435E-01
 0.00000E+00
 1.04687E-01
 2.09374E-01
 3.14061E-01
 4.18748E-01
 5.23435E-01
 0.00000E+00
 1.04687E-01
 2.09374E-01
 3.14061E-01
 4.18748E-01
 5.23435E-01
 0.00000E+00
 1.04687E-01
 2.09374E-01
 3.14061E-01
 4.18748E-01
 5.23435E-01
 0.00000E+00
 1.04687E-01
 2.09374E-01
 3.14061E-01
 4.18748E-01
 5.23435E-01
 SCALARS measuredDisp12 float  1                   
LOOKUP_TABLE default
 0.00000E+00
 0.00000E+00
 0.00000E+00
 0.00000E+00
 0.00000E+00
 0.00000E+00
 1.04687E-01
 1.04687E-01
 1.04687E-01
 1.04687E-01
 1.04687E-01
 1.04687E-01
 2.09374E-01
 2.09374E-01
 2.09374E-01
 2.09374E-01
 2.09374E-01
 2.09374E-01
 3.14061E-01
 3.14061E-01
 3.14061E-01
 3.14061E-01
 3.14061E-01
 3.14061E-01
 4.18748E-01
 4.18748E-01
 4.18748E-01
 4.18748E-01
 4.18748E-01
 4.18748E-01
 5.23435E-01
 5.23435E-01
 5.23435E-01
 5.23435E-01
 5.23435E-01
 5.23435E-01
 0.00000E+00
 0.00000E+00
 0.00000E+00
 0.00000E+00
 0.00000E+00
 0.00000E+00
 1.04687E-01
 1.04687E-01
 1.04687E-01
 1.04687E-01
 1.04687E-01
 1.04687E-01
 2.09374E-01
 2.09374E-01
 2.09374E-01
 2.09374E-01
 2.09374E-01
 2.09374E-01
 3.14061E-01
 3.14061E-01
 3.14061E-01
 3.14061E-01
 3.14061E-01
 3.14061E-01
 4.18748E-01
 4.18748E-01
 4.18748E-01
 4.18748E-01
 4.18748E-01
 4.18748E-01
 5.23435E-01
 5.23435E-01
 5.23435E-01
 5.23435E-01
 5.23435E-01
 5.23435E-01
 0.00000E+00
 0.00000E+00
 0.00000E+00
 0.00000E+00
 0.00000E+00
 0.00000E+00
 1.04687E-01
 1.04687E-01
 1.04687E-01
 1.04687E-01
 1.04687E-01
 1.04687E-01
 2.09374E-01
 2.09374E-01
 2.09374E-01
 2.09374E-01
 2.09374E-01
 2.09374E-01
 3.14061E-01
 3.14061E-01
 3.14061E-01
 3.14061E-01
 3.14061E-01
 3.14061E-01
 4.18748E-01
 4.18748E-01
 4.18748E-01
 4.18748E-01
 4.18748E-01
 4.18748E-01
 5.23435E-01
 5.23435E-01
 5.23435E-01
 5.23435E-01
 5.23435E-01
 5.23435E-01
 0.00000E+00
 0.00000E+00
 0.00000E+00
 0.00000E+00
 0.00000E+00
 0.00000E+00
 1.04687E-01
 1.04687E-01
 1.04687E-01
 1.04687E-01
 1.04687E-01
 1.04687E-01
 2.09374E-01
 2.09374E-01
 2.09374E-01
 2.09374E-01
 2.09374E-01
 2.09374E-01
 3.14061E-01
 3.14061E-01
 3.14061E-01
 3.14061E-01
 3.14061E-01
 3.14061E-01
 4.18748E-01
 4.18748E-01
 4.18748E-01
 4.18748E-01
 4.18748E-01
 4.18748E-01
 5.23435E-01
 5.23435E-01
 5.23435E-01
 5.23435E-01
 5.23435E-01
 5.23435E-01
 0.00000E+00
 0.00000E+00
 0.00000E+00
 0.00000E+00
 0.00000E+00
 0.00000E+00
 1.04687E-01
 1.04687E-01
 1.04687E-01
 1.04687E-01
 1.04687E-01
 1.04687E-01
 2.09374E-01
 2.09374E-01
 2.09374E-01
 2.09374E-01
 2.09374E-01
 2.09374E-01
 3.14061E-01
 3.14061E-01
 3.14061E-01
 3.14061E-01
 3.14061E-01
 3.14061E-01
 4.18748E-01
 4.18748E-01
 4.18748E-01
 4.18748E-01
 4.18748E-01
 4.18748E-01
 5.23435E-01
 5.23435E-01
 5.23435E-01
 5.23435E-01
 5.23435E-01
 5.23435E-01
 0.00000E+00
 0.00000E+00
 0.00000E+00
 0.00000E+00
 0.00000E+00
 0.00000E+00
 1.04687E-01
 1.04687E-01
 1.04687E-01
 1.04687E-01
 1.04687E-01
 1.04687E-01
 2.09374E-01
 2.09374E-01
 2.09374E-01
 2.09374E-01
 2.09374E-01
 2.09374E-01
 3.14061E-01
 3.14061E-01
 3.14061E-01
 3.14061E-01
 3.14061E-01
 3.14061E-01
 4.18748E-01
 4.18748E-01
 4.18748E-01
 4.18748E-01
 4.18748E-01
 4.18748E-01
 5.23435E-01
 5.23435E-01
 5.23435E-01
 5.23435E-01
 5.23435E-01
 5.23435E-01
 SCALARS measuredDisp13 float  1                   
LOOKUP_TABLE default
 0.00000E+00
 0.00000E+00
 0.00000E+00
 0.00000E+00
 0.00000E+00
 0.00000E+00
 0.00000E+00
 0.00000E+00
 0.00000E+00
 0.00000E+00
 0.00000E+00
 0.00000E+00
 0.00000E+00
 0.00000E+00
 0.00000E+00
 0.00000E+00
 0.00000E+00
 0.00000E+00
 0.00000E+00
 0.00000E+00
 0.00000E+00
 0.00000E+00
 0.00000E+00
 0.00000E+00
 0.00000E+00
 0.00000E+00
 0.00000E+00
 0.00000E+00
 0.00000E+00
 0.00000E+00
 0.00000E+00
 0.00000E+00
 0.00000E+00
 0.00000E+00
 0.00000E+00
 0.00000E+00
 1.94012E-01
 1.94012E-01
 1.94012E-01
 1.94012E-01
 1.94012E-01
 1.94012E-01
 1.94012E-01
 1.94012E-01
 1.94012E-01
 1.94012E-01
 1.94012E-01
 1.94012E-01
 1.94012E-01
 1.94012E-01
 1.94012E-01
 1.94012E-01
 1.94012E-01
 1.94012E-01
 1.94012E-01
 1.94012E-01
 1.94012E-01
 1.94012E-01
 1.94012E-01
 1.94012E-01
 1.94012E-01
 1.94012E-01
 1.94012E-01
 1.94012E-01
 1.94012E-01
 1.94012E-01
 1.94012E-01
 1.94012E-01
 1.94012E-01
 1.94012E-01
 1.94012E-01
 1.94012E-01
 3.88024E-01
 3.88024E-01
 3.88024E-01
 3.88024E-01
 3.88024E-01
 3.88024E-01
 3.88024E-01
 3.88024E-01
 3.88024E-01
 3.88024E-01
 3.88024E-01
 3.88024E-01
 3.88024E-01
 3.88024E-01
 3.88024E-01
 3.88024E-01
 3.88024E-01
 3.88024E-01
 3.88024E-01
 3.88024E-01
 3.88024E-01
 3.88024E-01
 3.88024E-01
 3.88024E-01
 3.88024E-01
 3.88024E-01
 3.88024E-01
 3.88024E-01
 3.88024E-01
 3.88024E-01
 3.88024E-01
 3.88024E-01
 3.88024E-01
 3.88024E-01
 3.88024E-01
 3.88024E-01
 5.82035E-01
 5.82035E-01
 5.82035E-01
 5.82035E-01
 5.82035E-01
 5.82035E-01
 5.82035E-01
 5.82035E-01
 5.82035E-01
 5.82035E-01
 5.82035E-01
 5.82035E-01
 5.82035E-01
 5.82035E-01
 5.82035E-01
 5.82035E-01
 5.82035E-01
 5.82035E-01
 5.82035E-01
 5.82035E-01
 5.82035E-01
 5.82035E-01
 5.82035E-01
 5.82035E-01
 5.82035E-01
 5.82035E-01
 5.82035E-01
 5.82035E-01
 5.82035E-01
 5.82035E-01
 5.82035E-01
 5.82035E-01
 5.82035E-01
 5.82035E-01
 5.82035E-01
 5.82035E-01
 7.76047E-01
 7.76047E-01
 7.76047E-01
 7.76047E-01
 7.76047E-01
 7.76047E-01
 7.76047E-01
 7.76047E-01
 7.76047E-01
 7.76047E-01
 7.76047E-01
 7.76047E-01
 7.76047E-01
 7.76047E-01
 7.76047E-01
 7.76047E-01
 7.76047E-01
 7.76047E-01
 7.76047E-01
 7.76047E-01
 7.76047E-01
 7.76047E-01
 7.76047E-01
 7.76047E-01
 7.76047E-01
 7.76047E-01
 7.76047E-01
 7.76047E-01
 7.76047E-01
 7.76047E-01
 7.76047E-01
 7.76047E-01
 7.76047E-01
 7.76047E-01
 7.76047E-01
 7.76047E-01
 9.70059E-01
 9.70059E-01
 9.70059E-01
 9.70059E-01
 9.70059E-01
 9.70059E-01
 9.70059E-01
 9.70059E-01
 9.70059E-01
 9.70059E-01
 9.70059E-01
 9.70059E-01
 9.70059E-01
 9.70059E-01
 9.70059E-01
 9.70059E-01
 9.70059E-01
 9.70059E-01
 9.70059E-01
 9.70059E-01
 9.70059E-01
 9.70059E-01
 9.70059E-01
 9.70059E-01
 9.70059E-01
 9.70059E-01
 9.70059E-01
 9.70059E-01
 9.70059E-01
 9.70059E-01
 9.70059E-01
 9.70059E-01
 9.70059E-01
 9.70059E-01
 9.70059E-01
 9.70059E-01
 SCALARS measuredDisp14 float  1                   
LOOKUP_TABLE default
 3.00998E-01
 3.00998E-01
 3.00998E-01
 3.00998E-01
 3.00998E-01
 3.00998E-01
 3.00998E-01
 3.00998E-01
 3.00998E-01
 3.00998E-01
 3.00998E-01
 3.00998E-01
 3.00998E-01
 3.00998E-01
 3.00998E-01
 3.00998E-01
 3.00998E-01
 3.00998E-01
 3.00998E-01
 3.00998E-01
 3.00998E-01
 3.00998E-01
 3.00998E-01
 3.00998E-01
 3.00998E-01
 3.00998E-01
 3.00998E-01
 3.00998E-01
 3.00998E-01
 3.00998E-01
 3.00998E-01
 3.00998E-01
 3.00998E-01
 3.00998E-01
 3.00998E-01
 3.00998E-01
 3.00998E-01
 3.00998E-01
 3.00998E-01
 3.00998E-01
 3.00998E-01
 3.00998E-01
 3.00998E-01
 3.00998E-01
 3.00998E-01
 3.00998E-01
 3.00998E-01
 3.00998E-01
 3.00998E-01
 3.00998E-01
 3.00998E-01
 3.00998E-01
 3.00998E-01
 3.00998E-01
 3.00998E-01
 3.00998E-01
 3.00998E-01
 3.00998E-01
 3.00998E-01
 3.00998E-01
 3.00998E-01
 3.00998E-01
 3.00998E-01
 3.00998E-01
 3.00998E-01
 3.00998E-01
 3.00998E-01
 3.00998E-01
 3.00998E-01
 3.00998E-01
 3.00998E-01
 3.00998E-01
 3.00998E-01
 3.00998E-01
 3.00998E-01
 3.00998E-01
 3.00998E-01
 3.00998E-01
 3.00998E-01
 3.00998E-01
 3.00998E-01
 3.00998E-01
 3.00998E-01
 3.00998E-01
 3.00998E-01
 3.00998E-01
 3.00998E-01
 3.00998E-01
 3.00998E-01
 3.00998E-01
 3.00998E-01
 3.00998E-01
 3.00998E-01
 3.00998E-01
 3.00998E-01
 3.00998E-01
 3.00998E-01
 3.00998E-01
 3.00998E-01
 3.00998E-01
 3.00998E-01
 3.00998E-01
 3.00998E-01
 3.00998E-01
 3.00998E-01
 3.00998E-01
 3.00998E-01
 3.00998E-01
 3.00998E-01
 3.00998E-01
 3.00998E-01
 3.00998E-01
 3.00998E-01
 3.00998E-01
 3.00998E-01
 3.00998E-01
 3.00998E-01
 3.00998E-01
 3.00998E-01
 3.00998E-01
 3.00998E-01
 3.00998E-01
 3.00998E-01
 3.00998E-01
 3.00998E-01
 3.00998E-01
 3.00998E-01
 3.00998E-01
 3.00998E-01
 3.00998E-01
 3.00998E-01
 3.00998E-01
 3.00998E-01
 3.00998E-01
 3.00998E-01
 3.00998E-01
 3.00998E-01
 3.00998E-01
 3.00998E-01
 3.00998E-01
 3.00998E-01
 3.00998E-01
 3.00998E-01
 3.00998E-01
 3.00998E-01
 3.00998E-01
 3.00998E-01
 3.00998E-01
 3.00998E-01
 3.00998E-01
 3.00998E-01
 3.00998E-01
 3.00998E-01
 3.00998E-01
 3.00998E-01
 3.00998E-01
 3.00998E-01
 3.00998E-01
 3.00998E-01
 3.00998E-01
 3.00998E-01
 3.00998E-01
 3.00998E-01
 3.00998E-01
 3.00998E-01
 3.00998E-01
 3.00998E-01
 3.00998E-01
 3.00998E-01
 3.00998E-01
 3.00998E-01
 3.00998E-01
 3.00998E-01
 3.00998E-01
 3.00998E-01
 3.00998E-01
 3.00998E-01
 3.00998E-01
 3.00998E-01
 3.00998E-01
 3.00998E-01
 3.00998E-01
 3.00998E-01
 3.00998E-01
 3.00998E-01
 3.00998E-01
 3.00998E-01
 3.00998E-01
 3.00998E-01
 3.00998E-01
 3.00998E-01
 3.00998E-01
 3.00998E-01
 3.00998E-01
 3.00998E-01
 3.00998E-01
 3.00998E-01
 3.00998E-01
 3.00998E-01
 3.00998E-01
 3.00998E-01
 3.00998E-01
 3.00998E-01
 3.00998E-01
 3.00998E-01
 3.00998E-01
 3.00998E-01
 3.00998E-01
 3.00998E-01
 3.00998E-01
 3.00998E-01
 3.00998E-01
 3.00998E-01
 3.00998E-01
 3.00998E-01
 3.00998E-01
 SCALARS predictedDisp11 float  1                  
LOOKUP_TABLE default
 0.00000E+00
 1.04687E-01
 2.09374E-01
 3.14061E-01
 4.18748E-01
 5.23435E-01
-1.73568E-08
 1.04687E-01
 2.09374E-01
 3.14061E-01
 4.18748E-01
 5.23435E-01
-3.80025E-08
 1.04687E-01
 2.09374E-01
 3.14061E-01
 4.18748E-01
 5.23435E-01
-3.67305E-08
 1.04687E-01
 2.09374E-01
 3.14061E-01
 4.18748E-01
 5.23435E-01
-1.39835E-08
 1.04687E-01
 2.09374E-01
 3.14061E-01
 4.18748E-01
 5.23435E-01
 0.00000E+00
 1.04687E-01
 2.09374E-01
 3.14061E-01
 4.18748E-01
 5.23435E-01
-3.79864E-08
 1.04687E-01
 2.09374E-01
 3.14061E-01
 4.18748E-01
 5.23435E-01
-4.56926E-08
 1.04687E-01
 2.09374E-01
 3.14061E-01
 4.18748E-01
 5.23435E-01
-6.24486E-08
 1.04687E-01
 2.09374E-01
 3.14061E-01
 4.18748E-01
 5.23435E-01
-4.32084E-08
 1.04687E-01
 2.09374E-01
 3.14061E-01
 4.18748E-01
 5.23435E-01
-2.76566E-08
 1.04687E-01
 2.09374E-01
 3.14061E-01
 4.18748E-01
 5.23435E-01
-1.44962E-08
 1.04687E-01
 2.09374E-01
 3.14061E-01
 4.18748E-01
 5.23435E-01
-2.34738E-07
 1.04687E-01
 2.09374E-01
 3.14061E-01
 4.18748E-01
 5.23435E-01
-1.87122E-07
 1.04687E-01
 2.09374E-01
 3.14061E-01
 4.18748E-01
 5.23435E-01
-1.44324E-07
 1.04687E-01
 2.09374E-01
 3.14061E-01
 4.18748E-01
 5.23435E-01
-4.20645E-08
 1.04687E-01
 2.09374E-01
 3.14061E-01
 4.18748E-01
 5.23435E-01
-7.42168E-08
 1.04687E-01
 2.09374E-01
 3.14061E-01
 4.18748E-01
 5.23435E-01
-8.18868E-08
 1.04687E-01
 2.09374E-01
 3.14061E-01
 4.18748E-01
 5.23435E-01
-6.83790E-07
 1.04687E-01
 2.09374E-01
 3.14061E-01
 4.18748E-01
 5.23435E-01
-4.90576E-07
 1.04687E-01
 2.09374E-01
 3.14061E-01
 4.18748E-01
 5.23435E-01
-3.00356E-07
 1.04687E-01
 2.09374E-01
 3.14061E-01
 4.18748E-01
 5.23435E-01
 8.17746E-08
 1.04687E-01
 2.09374E-01
 3.14061E-01
 4.18748E-01
 5.23435E-01
-2.08551E-07
 1.04687E-01
 2.09374E-01
 3.14061E-01
 4.18748E-01
 5.23435E-01
-2.56753E-07
 1.04687E-01
 2.09374E-01
 3.14061E-01
 4.18748E-01
 5.23436E-01
-7.82804E-07
 1.04687E-01
 2.09374E-01
 3.14061E-01
 4.18748E-01
 5.23435E-01
 4.81234E-08
 1.04687E-01
 2.09374E-01
 3.14061E-01
 4.18748E-01
 5.23436E-01
-2.73697E-07
 1.04687E-01
 2.09374E-01
 3.14061E-01
 4.18748E-01
 5.23435E-01
 4.06611E-07
 1.04687E-01
 2.09374E-01
 3.14061E-01
 4.18748E-01
 5.23435E-01
-4.15614E-07
 1.04687E-01
 2.09374E-01
 3.14061E-01
 4.18748E-01
 5.23435E-01
-2.77417E-07
 1.04687E-01
 2.09374E-01
 3.14061E-01
 4.18748E-01
 5.23436E-01
 2.15488E-06
 1.04687E-01
 2.09374E-01
 3.14061E-01
 4.18748E-01
 5.23435E-01
 9.52664E-07
 1.04687E-01
 2.09374E-01
 3.14062E-01
 4.18748E-01
 5.23433E-01
 7.16739E-07
 1.04687E-01
 2.09374E-01
 3.14061E-01
 4.18748E-01
 5.23435E-01
-1.05419E-06
 1.04686E-01
 2.09375E-01
 3.14061E-01
 4.18748E-01
 5.23434E-01
 2.32471E-06
 1.04687E-01
 2.09373E-01
 3.14061E-01
 4.18749E-01
 5.23435E-01
 2.91601E-07
 1.04687E-01
 2.09374E-01
 3.14061E-01
 4.18748E-01
 5.23433E-01
 SCALARS predictedDisp12 float  1                  
LOOKUP_TABLE default
 0.00000E+00
-3.08383E-08
-6.44551E-08
-8.40667E-08
-8.54713E-08
-9.12428E-08
 1.04687E-01
 1.04687E-01
 1.04687E-01
 1.04687E-01
 1.04687E-01
 1.04687E-01
 2.09374E-01
 2.09374E-01
 2.09374E-01
 2.09374E-01
 2.09374E-01
 2.09374E-01
 3.14061E-01
 3.14061E-01
 3.14061E-01
 3.14061E-01
 3.14061E-01
 3.14061E-01
 4.18748E-01
 4.18748E-01
 4.18748E-01
 4.18748E-01
 4.18748E-01
 4.18748E-01
 5.23435E-01
 5.23435E-01
 5.23435E-01
 5.23435E-01
 5.23435E-01
 5.23435E-01
-4.95300E-08
-6.93401E-08
-1.00007E-07
-9.55349E-08
-9.76595E-08
-9.88236E-08
 1.04687E-01
 1.04687E-01
 1.04687E-01
 1.04687E-01
 1.04687E-01
 1.04687E-01
 2.09374E-01
 2.09374E-01
 2.09374E-01
 2.09374E-01
 2.09374E-01
 2.09374E-01
 3.14061E-01
 3.14061E-01
 3.14061E-01
 3.14061E-01
 3.14061E-01
 3.14061E-01
 4.18748E-01
 4.18748E-01
 4.18748E-01
 4.18748E-01
 4.18748E-01
 4.18748E-01
 5.23435E-01
 5.23435E-01
 5.23435E-01
 5.23435E-01
 5.23435E-01
 5.23435E-01
-2.77413E-07
-2.49611E-07
-2.16330E-07
-1.14606E-07
-1.33820E-07
-1.24376E-07
 1.04687E-01
 1.04687E-01
 1.04687E-01
 1.04687E-01
 1.04687E-01
 1.04687E-01
 2.09374E-01
 2.09374E-01
 2.09374E-01
 2.09374E-01
 2.09374E-01
 2.09374E-01
 3.14061E-01
 3.14061E-01
 3.14061E-01
 3.14061E-01
 3.14061E-01
 3.14061E-01
 4.18748E-01
 4.18748E-01
 4.18748E-01
 4.18748E-01
 4.18748E-01
 4.18748E-01
 5.23435E-01
 5.23435E-01
 5.23435E-01
 5.23435E-01
 5.23435E-01
 5.23435E-01
-7.44181E-07
-6.24060E-07
-4.17074E-07
-5.17736E-08
-2.92489E-07
-1.81943E-07
 1.04687E-01
 1.04687E-01
 1.04687E-01
 1.04687E-01
 1.04687E-01
 1.04687E-01
 2.09374E-01
 2.09374E-01
 2.09374E-01
 2.09374E-01
 2.09374E-01
 2.09374E-01
 3.14061E-01
 3.14061E-01
 3.14061E-01
 3.14061E-01
 3.14061E-01
 3.14061E-01
 4.18748E-01
 4.18748E-01
 4.18748E-01
 4.18748E-01
 4.18748E-01
 4.18748E-01
 5.23436E-01
 5.23436E-01
 5.23435E-01
 5.23435E-01
 5.23435E-01
 5.23435E-01
-9.31649E-07
-7.51967E-08
-3.99394E-07
 3.42493E-07
-5.73991E-07
 7.67025E-08
 1.04687E-01
 1.04687E-01
 1.04687E-01
 1.04687E-01
 1.04687E-01
 1.04687E-01
 2.09374E-01
 2.09374E-01
 2.09374E-01
 2.09374E-01
 2.09374E-01
 2.09374E-01
 3.14061E-01
 3.14061E-01
 3.14061E-01
 3.14061E-01
 3.14061E-01
 3.14061E-01
 4.18748E-01
 4.18748E-01
 4.18748E-01
 4.18748E-01
 4.18748E-01
 4.18748E-01
 5.23435E-01
 5.23436E-01
 5.23435E-01
 5.23435E-01
 5.23435E-01
 5.23436E-01
 2.97991E-06
 1.53812E-06
 1.11818E-06
-8.89272E-07
 2.03102E-06
 1.08768E-07
 1.04687E-01
 1.04687E-01
 1.04688E-01
 1.04686E-01
 1.04687E-01
 1.04686E-01
 2.09374E-01
 2.09373E-01
 2.09374E-01
 2.09375E-01
 2.09374E-01
 2.09374E-01
 3.14062E-01
 3.14062E-01
 3.14061E-01
 3.14061E-01
 3.14061E-01
 3.14062E-01
 4.18747E-01
 4.18748E-01
 4.18748E-01
 4.18748E-01
 4.18749E-01
 4.18748E-01
 5.23434E-01
 5.23432E-01
 5.23435E-01
 5.23435E-01
 5.23435E-01
 5.23432E-01
 SCALARS predictedDisp13 float  1                  
LOOKUP_TABLE default
 0.00000E+00
 0.00000E+00
 0.00000E+00
 0.00000E+00
 0.00000E+00
 0.00000E+00
 0.00000E+00
 0.00000E+00
 0.00000E+00
 0.00000E+00
 0.00000E+00
 0.00000E+00
 0.00000E+00
 0.00000E+00
 0.00000E+00
 0.00000E+00
 0.00000E+00
 0.00000E+00
 0.00000E+00
 0.00000E+00
 0.00000E+00
 0.00000E+00
 0.00000E+00
 0.00000E+00
 0.00000E+00
 0.00000E+00
 0.00000E+00
 0.00000E+00
 0.00000E+00
 0.00000E+00
 0.00000E+00
 0.00000E+00
 0.00000E+00
 0.00000E+00
 0.00000E+00
 0.00000E+00
 1.94012E-01
 1.94012E-01
 1.94012E-01
 1.94012E-01
 1.94012E-01
 1.94012E-01
 1.94012E-01
 1.94012E-01
 1.94012E-01
 1.94012E-01
 1.94012E-01
 1.94012E-01
 1.94012E-01
 1.94012E-01
 1.94012E-01
 1.94012E-01
 1.94012E-01
 1.94012E-01
 1.94012E-01
 1.94012E-01
 1.94012E-01
 1.94012E-01
 1.94012E-01
 1.94012E-01
 1.94012E-01
 1.94012E-01
 1.94012E-01
 1.94012E-01
 1.94012E-01
 1.94012E-01
 1.94012E-01
 1.94012E-01
 1.94012E-01
 1.94012E-01
 1.94012E-01
 1.94012E-01
 3.88024E-01
 3.88024E-01
 3.88023E-01
 3.88023E-01
 3.88023E-01
 3.88023E-01
 3.88024E-01
 3.88024E-01
 3.88023E-01
 3.88023E-01
 3.88023E-01
 3.88023E-01
 3.88023E-01
 3.88023E-01
 3.88023E-01
 3.88023E-01
 3.88023E-01
 3.88023E-01
 3.88023E-01
 3.88023E-01
 3.88023E-01
 3.88023E-01
 3.88023E-01
 3.88023E-01
 3.88023E-01
 3.88023E-01
 3.88023E-01
 3.88023E-01
 3.88023E-01
 3.88023E-01
 3.88024E-01
 3.88023E-01
 3.88023E-01
 3.88023E-01
 3.88023E-01
 3.88024E-01
 5.82035E-01
 5.82035E-01
 5.82035E-01
 5.82035E-01
 5.82035E-01
 5.82035E-01
 5.82035E-01
 5.82035E-01
 5.82035E-01
 5.82035E-01
 5.82035E-01
 5.82035E-01
 5.82035E-01
 5.82035E-01
 5.82035E-01
 5.82035E-01
 5.82035E-01
 5.82035E-01
 5.82035E-01
 5.82035E-01
 5.82035E-01
 5.82035E-01
 5.82035E-01
 5.82035E-01
 5.82035E-01
 5.82035E-01
 5.82035E-01
 5.82035E-01
 5.82035E-01
 5.82035E-01
 5.82035E-01
 5.82035E-01
 5.82035E-01
 5.82035E-01
 5.82035E-01
 5.82035E-01
 7.76045E-01
 7.76047E-01
 7.76046E-01
 7.76048E-01
 7.76046E-01
 7.76047E-01
 7.76047E-01
 7.76048E-01
 7.76047E-01
 7.76046E-01
 7.76047E-01
 7.76046E-01
 7.76046E-01
 7.76047E-01
 7.76048E-01
 7.76047E-01
 7.76047E-01
 7.76047E-01
 7.76048E-01
 7.76046E-01
 7.76046E-01
 7.76048E-01
 7.76047E-01
 7.76047E-01
 7.76047E-01
 7.76048E-01
 7.76047E-01
 7.76047E-01
 7.76047E-01
 7.76048E-01
 7.76046E-01
 7.76046E-01
 7.76047E-01
 7.76046E-01
 7.76047E-01
 7.76046E-01
 9.70049E-01
 9.70060E-01
 9.70052E-01
 9.70064E-01
 9.70050E-01
 9.70062E-01
 9.70061E-01
 9.70062E-01
 9.70058E-01
 9.70053E-01
 9.70062E-01
 9.70054E-01
 9.70052E-01
 9.70058E-01
 9.70064E-01
 9.70058E-01
 9.70057E-01
 9.70059E-01
 9.70064E-01
 9.70052E-01
 9.70056E-01