# vtk DataFile Version 2.0
OUTPUT FROM BUFEM
ASCII
DATASET UNSTRUCTURED_GRID
POINTS         3721 FLOAT
   0.00000000E+00   0.00000000E+00   0.00000000E+00
   0.16666670E-01   0.00000000E+00   0.00000000E+00
   0.33333330E-01   0.00000000E+00   0.00000000E+00
   0.50000000E-01   0.00000000E+00   0.00000000E+00
   0.66666670E-01   0.00000000E+00   0.00000000E+00
   0.83333330E-01   0.00000000E+00   0.00000000E+00
   0.10000000E+00   0.00000000E+00   0.00000000E+00
   0.11666670E+00   0.00000000E+00   0.00000000E+00
   0.13333330E+00   0.00000000E+00   0.00000000E+00
   0.15000000E+00   0.00000000E+00   0.00000000E+00
   0.16666670E+00   0.00000000E+00   0.00000000E+00
   0.18333330E+00   0.00000000E+00   0.00000000E+00
   0.20000000E+00   0.00000000E+00   0.00000000E+00
   0.21666670E+00   0.00000000E+00   0.00000000E+00
   0.23333330E+00   0.00000000E+00   0.00000000E+00
   0.25000000E+00   0.00000000E+00   0.00000000E+00
   0.26666670E+00   0.00000000E+00   0.00000000E+00
   0.28333330E+00   0.00000000E+00   0.00000000E+00
   0.30000000E+00   0.00000000E+00   0.00000000E+00
   0.31666670E+00   0.00000000E+00   0.00000000E+00
   0.33333330E+00   0.00000000E+00   0.00000000E+00
   0.35000000E+00   0.00000000E+00   0.00000000E+00
   0.36666670E+00   0.00000000E+00   0.00000000E+00
   0.38333330E+00   0.00000000E+00   0.00000000E+00
   0.40000000E+00   0.00000000E+00   0.00000000E+00
   0.41666670E+00   0.00000000E+00   0.00000000E+00
   0.43333330E+00   0.00000000E+00   0.00000000E+00
   0.45000000E+00   0.00000000E+00   0.00000000E+00
   0.46666670E+00   0.00000000E+00   0.00000000E+00
   0.48333330E+00   0.00000000E+00   0.00000000E+00
   0.50000000E+00   0.00000000E+00   0.00000000E+00
   0.51666670E+00   0.00000000E+00   0.00000000E+00
   0.53333330E+00   0.00000000E+00   0.00000000E+00
   0.55000000E+00   0.00000000E+00   0.00000000E+00
   0.56666670E+00   0.00000000E+00   0.00000000E+00
   0.58333330E+00   0.00000000E+00   0.00000000E+00
   0.60000000E+00   0.00000000E+00   0.00000000E+00
   0.61666670E+00   0.00000000E+00   0.00000000E+00
   0.63333330E+00   0.00000000E+00   0.00000000E+00
   0.65000000E+00   0.00000000E+00   0.00000000E+00
   0.66666670E+00   0.00000000E+00   0.00000000E+00
   0.68333330E+00   0.00000000E+00   0.00000000E+00
   0.70000000E+00   0.00000000E+00   0.00000000E+00
   0.71666670E+00   0.00000000E+00   0.00000000E+00
   0.73333330E+00   0.00000000E+00   0.00000000E+00
   0.75000000E+00   0.00000000E+00   0.00000000E+00
   0.76666670E+00   0.00000000E+00   0.00000000E+00
   0.78333330E+00   0.00000000E+00   0.00000000E+00
   0.80000000E+00   0.00000000E+00   0.00000000E+00
   0.81666670E+00   0.00000000E+00   0.00000000E+00
   0.83333330E+00   0.00000000E+00   0.00000000E+00
   0.85000000E+00   0.00000000E+00   0.00000000E+00
   0.86666670E+00   0.00000000E+00   0.00000000E+00
   0.88333330E+00   0.00000000E+00   0.00000000E+00
   0.90000000E+00   0.00000000E+00   0.00000000E+00
   0.91666670E+00   0.00000000E+00   0.00000000E+00
   0.93333330E+00   0.00000000E+00   0.00000000E+00
   0.95000000E+00   0.00000000E+00   0.00000000E+00
   0.96666670E+00   0.00000000E+00   0.00000000E+00
   0.98333330E+00   0.00000000E+00   0.00000000E+00
   0.10000000E+01   0.00000000E+00   0.00000000E+00
   0.00000000E+00   0.16666670E-01   0.00000000E+00
   0.16666670E-01   0.16666670E-01   0.00000000E+00
   0.33333330E-01   0.16666670E-01   0.00000000E+00
   0.50000000E-01   0.16666670E-01   0.00000000E+00
   0.66666670E-01   0.16666670E-01   0.00000000E+00
   0.83333330E-01   0.16666670E-01   0.00000000E+00
   0.10000000E+00   0.16666670E-01   0.00000000E+00
   0.11666670E+00   0.16666670E-01   0.00000000E+00
   0.13333330E+00   0.16666670E-01   0.00000000E+00
   0.15000000E+00   0.16666670E-01   0.00000000E+00
   0.16666670E+00   0.16666670E-01   0.00000000E+00
   0.18333330E+00   0.16666670E-01   0.00000000E+00
   0.20000000E+00   0.16666670E-01   0.00000000E+00
   0.21666670E+00   0.16666670E-01   0.00000000E+00
   0.23333330E+00   0.16666670E-01   0.00000000E+00
   0.25000000E+00   0.16666670E-01   0.00000000E+00
   0.26666670E+00   0.16666670E-01   0.00000000E+00
   0.28333330E+00   0.16666670E-01   0.00000000E+00
   0.30000000E+00   0.16666670E-01   0.00000000E+00
   0.31666670E+00   0.16666670E-01   0.00000000E+00
   0.33333330E+00   0.16666670E-01   0.00000000E+00
   0.35000000E+00   0.16666670E-01   0.00000000E+00
   0.36666670E+00   0.16666670E-01   0.00000000E+00
   0.38333330E+00   0.16666670E-01   0.00000000E+00
   0.40000000E+00   0.16666670E-01   0.00000000E+00
   0.41666670E+00   0.16666670E-01   0.00000000E+00
   0.43333330E+00   0.16666670E-01   0.00000000E+00
   0.45000000E+00   0.16666670E-01   0.00000000E+00
   0.46666670E+00   0.16666670E-01   0.00000000E+00
   0.48333330E+00   0.16666670E-01   0.00000000E+00
   0.50000000E+00   0.16666670E-01   0.00000000E+00
   0.51666670E+00   0.16666670E-01   0.00000000E+00
   0.53333330E+00   0.16666670E-01   0.00000000E+00
   0.55000000E+00   0.16666670E-01   0.00000000E+00
   0.56666670E+00   0.16666670E-01   0.00000000E+00
   0.58333330E+00   0.16666670E-01   0.00000000E+00
   0.60000000E+00   0.16666670E-01   0.00000000E+00
   0.61666670E+00   0.16666670E-01   0.00000000E+00
   0.63333330E+00   0.16666670E-01   0.00000000E+00
   0.65000000E+00   0.16666670E-01   0.00000000E+00
   0.66666670E+00   0.16666670E-01   0.00000000E+00
   0.68333330E+00   0.16666670E-01   0.00000000E+00
   0.70000000E+00   0.16666670E-01   0.00000000E+00
   0.71666670E+00   0.16666670E-01   0.00000000E+00
   0.73333330E+00   0.16666670E-01   0.00000000E+00
   0.75000000E+00   0.16666670E-01   0.00000000E+00
   0.76666670E+00   0.16666670E-01   0.00000000E+00
   0.78333330E+00   0.16666670E-01   0.00000000E+00
   0.80000000E+00   0.16666670E-01   0.00000000E+00
   0.81666670E+00   0.16666670E-01   0.00000000E+00
   0.83333330E+00   0.16666670E-01   0.00000000E+00
   0.85000000E+00   0.16666670E-01   0.00000000E+00
   0.86666670E+00   0.16666670E-01   0.00000000E+00
   0.88333330E+00   0.16666670E-01   0.00000000E+00
   0.90000000E+00   0.16666670E-01   0.00000000E+00
   0.91666670E+00   0.16666670E-01   0.00000000E+00
   0.93333330E+00   0.16666670E-01   0.00000000E+00
   0.95000000E+00   0.16666670E-01   0.00000000E+00
   0.96666670E+00   0.16666670E-01   0.00000000E+00
   0.98333330E+00   0.16666670E-01   0.00000000E+00
   0.10000000E+01   0.16666670E-01   0.00000000E+00
   0.00000000E+00   0.33333330E-01   0.00000000E+00
   0.16666670E-01   0.33333330E-01   0.00000000E+00
   0.33333330E-01   0.33333330E-01   0.00000000E+00
   0.50000000E-01   0.33333330E-01   0.00000000E+00
   0.66666670E-01   0.33333330E-01   0.00000000E+00
   0.83333330E-01   0.33333330E-01   0.00000000E+00
   0.10000000E+00   0.33333330E-01   0.00000000E+00
   0.11666670E+00   0.33333330E-01   0.00000000E+00
   0.13333330E+00   0.33333330E-01   0.00000000E+00
   0.15000000E+00   0.33333330E-01   0.00000000E+00
   0.16666670E+00   0.33333330E-01   0.00000000E+00
   0.18333330E+00   0.33333330E-01   0.00000000E+00
   0.20000000E+00   0.33333330E-01   0.00000000E+00
   0.21666670E+00   0.33333330E-01   0.00000000E+00
   0.23333330E+00   0.33333330E-01   0.00000000E+00
   0.25000000E+00   0.33333330E-01   0.00000000E+00
   0.26666670E+00   0.33333330E-01   0.00000000E+00
   0.28333330E+00   0.33333330E-01   0.00000000E+00
   0.30000000E+00   0.33333330E-01   0.00000000E+00
   0.31666670E+00   0.33333330E-01   0.00000000E+00
   0.33333330E+00   0.33333330E-01   0.00000000E+00
   0.35000000E+00   0.33333330E-01   0.00000000E+00
   0.36666670E+00   0.33333330E-01   0.00000000E+00
   0.38333330E+00   0.33333330E-01   0.00000000E+00
   0.40000000E+00   0.33333330E-01   0.00000000E+00
   0.41666670E+00   0.33333330E-01   0.00000000E+00
   0.43333330E+00   0.33333330E-01   0.00000000E+00
   0.45000000E+00   0.33333330E-01   0.00000000E+00
   0.46666670E+00   0.33333330E-01   0.00000000E+00
   0.48333330E+00   0.33333330E-01   0.00000000E+00
   0.50000000E+00   0.33333330E-01   0.00000000E+00
   0.51666670E+00   0.33333330E-01   0.00000000E+00
   0.53333330E+00   0.33333330E-01   0.00000000E+00
   0.55000000E+00   0.33333330E-01   0.00000000E+00
   0.56666670E+00   0.33333330E-01   0.00000000E+00
   0.58333330E+00   0.33333330E-01   0.00000000E+00
   0.60000000E+00   0.33333330E-01   0.00000000E+00
   0.61666670E+00   0.33333330E-01   0.00000000E+00
   0.63333330E+00   0.33333330E-01   0.00000000E+00
   0.65000000E+00   0.33333330E-01   0.00000000E+00
   0.66666670E+00   0.33333330E-01   0.00000000E+00
   0.68333330E+00   0.33333330E-01   0.00000000E+00
   0.70000000E+00   0.33333330E-01   0.00000000E+00
   0.71666670E+00   0.33333330E-01   0.00000000E+00
   0.73333330E+00   0.33333330E-01   0.00000000E+00
   0.75000000E+00   0.33333330E-01   0.00000000E+00
   0.76666670E+00   0.33333330E-01   0.00000000E+00
   0.78333330E+00   0.33333330E-01   0.00000000E+00
   0.80000000E+00   0.33333330E-01   0.00000000E+00
   0.81666670E+00   0.33333330E-01   0.00000000E+00
   0.83333330E+00   0.33333330E-01   0.00000000E+00
   0.85000000E+00   0.33333330E-01   0.00000000E+00
   0.86666670E+00   0.33333330E-01   0.00000000E+00
   0.88333330E+00   0.33333330E-01   0.00000000E+00
   0.90000000E+00   0.33333330E-01   0.00000000E+00
   0.91666670E+00   0.33333330E-01   0.00000000E+00
   0.93333330E+00   0.33333330E-01   0.00000000E+00
   0.95000000E+00   0.33333330E-01   0.00000000E+00
   0.96666670E+00   0.33333330E-01   0.00000000E+00
   0.98333330E+00   0.33333330E-01   0.00000000E+00
   0.10000000E+01   0.33333330E-01   0.00000000E+00
   0.00000000E+00   0.50000000E-01   0.00000000E+00
   0.16666670E-01   0.50000000E-01   0.00000000E+00
   0.33333330E-01   0.50000000E-01   0.00000000E+00
   0.50000000E-01   0.50000000E-01   0.00000000E+00
   0.66666670E-01   0.50000000E-01   0.00000000E+00
   0.83333330E-01   0.50000000E-01   0.00000000E+00
   0.10000000E+00   0.50000000E-01   0.00000000E+00
[...]
POINT_DATA         3721
 SCALARS meas11 float  1  
LOOKUP_TABLE default
 -1.081484040851271E-003
 -1.046845343970989E-003
 -1.012052297462018E-003
 -9.769915167113362E-004
 -9.415865762864492E-004
 -9.057913547459441E-004
 -8.695861211837316E-004
 -8.329747397239083E-004
 -7.959823216208202E-004
 -7.586513134313444E-004
 -7.210397790789774E-004
 -6.832173535217349E-004
 -6.452609730194746E-004
 -6.072525656764449E-004
 -5.692747376585406E-004
 -5.314066412419055E-004
 -4.937222164430518E-004
 -4.562868225481289E-004
 -4.191544334478152E-004
 -3.823674441681226E-004
 -3.459550631872042E-004
 -3.099323331366322E-004
 -2.743016352974646E-004
 -2.390526705622935E-004
 -2.041628355152955E-004
 -1.695997420037460E-004
 -1.353219944613305E-004
 -1.012800915875425E-004
 -6.741920106358351E-005
 -3.368008076896631E-005
  0.000000000000000E+000
  3.368454334743927E-005
  6.743693586428626E-005
  1.013195598326877E-004
  1.353910648923844E-004
  1.697054356431836E-004
  2.043110649408781E-004
  2.392479738532959E-004
  2.745469263489170E-004
  3.102286882406698E-004
  3.463015523790536E-004
  3.827610375334833E-004
  4.195899978890132E-004
  4.567572080136769E-004
  4.942184467954331E-004
  5.319182039322122E-004
  5.697899547363139E-004
  6.077590376845785E-004
  6.457460685837419E-004
  6.836687152660413E-004
  7.214458124263333E-004
  7.590016126026772E-004
  7.962679947709280E-004
  8.331885802516236E-004
  8.697225790149118E-004
  9.058463577949100E-004
  9.415567419011720E-004
  9.768741994940322E-004
  1.011844573620223E-003
  1.046544647527593E-003
  1.081093880011919E-003
 -1.081360485549544E-003
 -1.046759044407515E-003
 -1.011990284068756E-003
 -9.769467185267557E-004
 -9.415532958765918E-004
 -9.057642945571665E-004
 -8.695602505573940E-004
 -8.329453802395680E-004
 -7.959452831226796E-004
 -7.586030330950422E-004
 -7.209774413413375E-004
 -6.831389852942635E-004
 -6.451655052759257E-004
 -6.071398544625550E-004
 -5.691455416979228E-004
 -5.312625539025634E-004
 -4.935655575690364E-004
 -4.561204969102315E-004
 -4.189817662053082E-004
 -3.821920102686011E-004
 -3.457805211484750E-004
 -3.097622748599772E-004
 -2.741394647343591E-004
 -2.389015124962236E-004
 -2.040254759510845E-004
 -1.694786006715547E-004
 -1.352191206256569E-004
 -1.011971767926518E-004
 -6.735760225725606E-005
 -3.364084397913748E-005
  1.612104964043431E-008
  3.367707925811327E-005
  6.740570732193230E-005
  1.012646965608489E-004
  1.353130384517282E-004
  1.696051000919827E-004
  2.041896983094284E-004
  2.391073167987212E-004
  2.743892059462209E-004
  3.100566181446896E-004
  3.461183067896615E-004
  3.825701893444505E-004
  4.193954195029166E-004
  4.565629409242662E-004
  4.940285417316395E-004
  5.317365426917473E-004
  5.696200687138646E-004
  6.076039344286434E-004
  6.456080816687555E-004
  6.835493882056310E-004
  7.213458240799116E-004
  7.589207493966407E-004
  7.962051670305685E-004
  8.331418849751375E-004
  8.696894134783032E-004
  9.058235933405578E-004
  9.415409987633472E-004
  9.768622965822885E-004
  1.011834253238138E-003
  1.046535471720649E-003
  1.081086027189562E-003
 -1.081144385917203E-003
 -1.046586031464864E-003
 -1.011860121693666E-003
 -9.768483642084778E-004
 -9.414731295725464E-004
 -9.056881723089632E-004
 -8.694744815674005E-004
 -8.328373988715751E-004
 -7.958041738760558E-004
 -7.584199517275083E-004
 -7.207459440526886E-004
 -6.828552583019295E-004
 -6.448284800772789E-004
 -6.067511971321552E-004
 -5.687095057123531E-004
 -5.307857004497034E-004
 -4.930563633410813E-004
 -4.555888767063957E-004
 -4.184385502246915E-004
 -3.816484199914500E-004
 -3.452476825333617E-004
 -3.092508029265824E-004
 -2.736591411206860E-004
 -2.384610655336885E-004
 -2.036324614064231E-004
 -1.691393681383571E-004
 -1.349388469253384E-004
 -1.009799426393130E-004
 -6.720648410760082E-005
 -3.355800099546886E-005
  2.938333276790736E-008
  3.362028510156954E-005
  6.727922931802311E-005
  1.010698153949196E-004
  1.350520396004642E-004
  1.692813888452047E-004
  2.038079131223540E-004
  2.386734207244362E-004
  2.739105270452423E-004
  3.095418154343746E-004
  3.455772450494977E-004
  3.820137081891676E-004
  4.188349966137072E-004
  4.560102617271728E-004
  4.934949979021860E-004
  5.312326953062599E-004
  5.691551167415960E-004
  6.071852326467836E-004
  6.452407482256197E-004
  6.832360286992757E-004
  7.210863908564188E-004
  7.587125388480348E-004
  7.960429428659665E-004
  8.330181163688414E-004
  8.695946156363792E-004
  9.057467656606125E-004
  9.414701734279300E-004
  9.767852079645546E-004
  1.011739089133477E-003
  1.046411495462865E-003
  1.080923733553907E-003
 -1.080813201046404E-003
 -1.046324086293563E-003
 -1.011659636900845E-003
 -9.766931419297913E-004
 -9.413420832978394E-004
 -9.055586652696474E-004
 -8.693243444904475E-004
 -8.326462536743493E-004
 -7.955543933602093E-004
 -7.580973933737505E-004
 -7.203405102214266E-004
 -6.823612807808011E-004
 -6.442449066195741E-004
 -6.060815599991465E-004
 -5.679616534772202E-004
 -5.299713006817594E-004
 -4.921902123613543E-004
 -4.546880665678321E-004
 -4.175215647005479E-004
 -3.807342367263462E-004
 -3.443549496040500E-004
 -3.083971481382063E-004
 -2.728606485292792E-004
 -2.377319335246006E-004
 -2.029848360384102E-004
 -1.685833221481023E-004
 -1.344824704457257E-004
 -1.006295031803663E-004
 -6.696660634629229E-005
 -3.343183213763917E-005
  4.005380371117061E-008
  3.351497892856239E-005
  6.705880979275833E-005
  1.007365918518292E-004
  1.346099376690376E-004
  1.687361543514958E-004
  2.031673149187637E-004
  2.379474164033409E-004
  2.731113415343341E-004
  3.086838915546026E-004
  3.446770357264079E-004
  3.810892854212035E-004
  4.179054769234360E-004
  4.550950689461306E-004
  4.926130038078104E-004
  5.304013017729170E-004
  5.683893513367830E-004
  6.064969360802481E-004
  6.446379238357112E-004
  6.827223995779383E-004
  7.206611939328813E-004
  7.583705552335483E-004
  7.957747366957443E-004
  8.328104525572189E-004
  8.694310222916729E-004
  9.056082188559014E-004
  9.413359132554376E-004
  9.766337212670480E-004
  1.011549346049284E-003
  1.046164672782798E-003
  1.080606234089325E-003
 -1.080346741745425E-003
 -1.045956954199574E-003
 -1.011377095458672E-003
 -9.764709129797039E-004
 -9.411506186682626E-004
 -9.053665642876980E-004
 -8.691008880020074E-004
 -8.323632126399959E-004
 -7.951873750478023E-004
 -7.576268850146488E-004
 -7.197526887806004E-004
 -6.816485803501734E-004
 -6.434063035441173E-004
 -6.051225388632347E-004
 -5.668938215053131E-004
 -5.288116599179083E-004
 -4.909601440268561E-004
 -4.534121056543551E-004
 -4.162260751530155E-004
 -3.794461046697996E-004
 -3.431003978977746E-004
 -3.072007582205656E-004
 -2.717446382577010E-004
 -2.367157087029663E-004
 -2.020848018648768E-004
 -1.678129069611609E-004
 -1.338523084057211E-004
 -1.001477111100615E-004
 -6.663908139186337E-005
 -3.326251956784131E-005
  4.896810121955947E-008
  3.336299072515698E-005
  6.674713883693773E-005
  1.002683402226701E-004
  1.339903514149542E-004
  1.679729420404180E-004
  2.022709720294572E-004
  2.369315015728251E-004
  2.719926302787493E-004
  3.074823448426540E-004
  3.434155354813686E-004
  3.797930973288682E-004
  4.166014370680312E-004
  4.538105232762239E-004
  4.913745605056422E-004
  5.292334925715611E-004
  5.673133120819687E-004
  6.055292266593713E-004
  6.437895944528212E-004
  6.819983720592575E-004
  7.200599983801177E-004
  7.578844142958211E-004
  7.953899470108112E-004
  8.325080077431278E-004
  8.691874168058839E-004
  9.053963963485704E-004
  9.411263845411570E-004
  9.763959533575722E-004
  1.011253668843449E-003
  1.045785227390043E-003
  1.080126047689324E-003
 -1.079721300943345E-003
 -1.045462696821222E-003
 -1.010993209147856E-003
 -9.761644901431217E-004
 -9.408828641807672E-004
 -9.050969009545707E-004
 -8.687898630465435E-004
 -8.319746365020610E-004
 -7.946899771529727E-004
 -7.569956510914590E-004
 -7.189699424032069E-004
 -6.807047739622005E-004
 -6.423004437084015E-004
 -6.038621773909598E-004
 -5.654945569507111E-004
 -5.272961578043492E-004
 -4.893567521303884E-004
 -4.517531788631408E-004
 -4.145461697297122E-004
 -3.777802102760447E-004
 -3.414823541632632E-004
 -3.056619742648406E-004
 -2.703131788208364E-004
 -2.354157653991611E-004
 -2.009365232844157E-004
 -1.668325159453319E-004
 -1.330524278960044E-004
 -9.953780640232650E-005
 -6.622591785489662E-005
 -3.305056609268165E-005
  5.725130948915061E-008
  3.316703220412231E-005
  6.634831139046216E-005
  9.967018678539316E-005
  1.331989639098333E-004
  1.669974317849097E-004
  2.011239623291876E-004
  2.356295673999073E-004
  2.705565815752107E-004
  3.059372630682188E-004
  3.417904912840255E-004
  3.781204884250886E-004
  4.149159348177617E-004
  4.521476635878230E-004
  4.897690610888615E-004
  5.277174321037455E-004
  5.659143308562506E-004
  6.042689227650278E-004
  6.426822702703815E-004
  6.810502297812910E-004
  7.192688367538759E-004
  7.572398061559518E-004
  7.948738136526352E-004
  8.320954957267667E-004
  8.688479792736568E-004
  9.050950231329933E-004
  9.408250237268037E-004
  9.760552928927543E-004
  1.010835659197473E-003
  1.045257063703966E-003
  1.079466884534520E-003
 -1.078907043350877E-003
 -1.044813013071333E-003
 -1.010481485964431E-003
 -9.757491673083350E-004
 -9.405156689068781E-004
 -9.047278924024402E-004
 -8.683707513450053E-004
 -8.314611763255413E-004
 -7.940438758824045E-004
 -7.561861960578588E-004
 -7.179753961538167E-004
 -6.795134546849500E-004
 -6.409113555011778E-004
 -6.022850692499511E-004
 -5.637493182961079E-004
 -5.254115545991764E-004
 -4.873686084226565E-004
 -4.497021683011878E-004
 -4.124754428571367E-004
 -3.757330923635674E-004
 -3.395003157681984E-004
 -3.037830315155133E-004
 -2.685708020029282E-004
 -2.338383105178427E-004
 -1.995471398713676E-004
 -1.656494264195712E-004
 -1.320894665493004E-004
 -9.880509184327493E-005
 -6.573052589425365E-005
 -3.279711148094480E-005
  6.620322115907835E-008
  3.293078948182877E-005
  6.586812584403173E-005
  9.894956473822745E-005
  1.322441954487538E-004
  1.658182615014330E-004
  1.997343119609838E-004
  2.340482104340120E-004
  2.688076313383950E-004
  3.040503479199093E-004
  3.398005110672176E-004
  3.760668600941842E-004
  4.128412998691919E-004
  4.500960963257962E-004
  4.877838844532552E-004
  5.258388262998132E-004
  5.641769598580673E-004
  6.026998252980518E-004
  6.412992347703549E-004
  6.798607928996090E-004
  7.182699710151291E-004
  7.564182547906093E-004
  7.942069380324136E-004
  8.315524812001730E-004
  8.683912442254255E-004
  9.046817409852601E-004
  9.404088091899480E-004
  9.755882845367392E-004
  1.010271513793441E-003
  1.044555798923884E-003
  1.078603193029485E-003
 -1.077865685854984E-003
 -1.043971146599918E-003
 -1.009806688808082E-003
 -9.751913065956374E-004
 -9.400171274940907E-004
 -9.042295174359545E-004
 -8.678155281623670E-004
 -8.307968035137135E-004
 -7.932248873587796E-004
 -7.551759024670146E-004
 -7.167476733151292E-004
 -6.780542206207219E-004
 -6.392195071005034E-004
 -6.003726748493161E-004
 -5.616409184982887E-004
 -5.231425678251555E-004
 -4.849829859527113E-004
 -4.472495343426718E-004
 -4.100080356525050E-004
 -3.733028294601761E-004
 -3.371562571784188E-004
 -3.015694436834922E-004
 -2.665259143923542E-004
 -2.319937675639980E-004
 -1.979280689728203E-004
 -1.642749715340652E-004
 -1.309736313850658E-004
 -9.795772442593905E-005
 -6.515827463855528E-005
 -3.250423685973512E-005
  7.725886095601446E-008
  3.265915307069070E-005
  6.531457989406008E-005
  9.811696286177213E-005
  1.311381811226319E-004
  1.644481979998227E-004
  1.981143123632628E-004
  2.321981392636604E-004
  2.667538974422693E-004
  3.018263155409235E-004
  3.374463762724843E-004
  3.736288546879778E-004
  4.103701669876737E-004
  4.476448736649601E-004
  4.854051289300300E-004
  5.235815287892304E-004
  5.620834641147281E-004
  6.008030979386530E-004
  6.396207958902110E-004
  6.784095043955497E-004
  7.170417643353846E-004
  7.553967211490709E-004
  7.933645697930705E-004
  8.308523185534696E-004
  8.677886839828711E-004
  9.041263586857776E-004
  9.398462416259300E-004
  9.749624719465207E-004
  1.009527981730444E-003
  1.043647218081457E-003
  1.077499385674057E-003
 -1.076548029141784E-003
 -1.042889249263798E-003
 -1.008922297921410E-003
 -9.744459755877379E-004
 -9.393443978787824E-004
 -9.035615816423180E-004
 -8.670870680915974E-004
 -8.299476172557354E-004
 -7.922021868913864E-004
 -7.539366287189826E-004
 -7.152608127309073E-004
 -6.763028474277643E-004
 -6.372021811939918E-004
 -5.981038670135069E-004
 -5.591502336867179E-004
 -5.204727533175141E-004
 -4.821869285981322E-004
 -4.443865851927710E-004
 -4.071401029939158E-004
 -3.704906822279638E-004
 -3.344564053105073E-004
 -2.990318523255869E-004
 -2.641926521021458E-004
 -2.298985657763033E-004
 -1.960966626579982E-004
 -1.627260072509370E-004
 -1.297199289152026E-004
 -9.700767256036888E-005
 -6.451715010224582E-005
 -3.217530492214509E-005
  9.197761629577920E-008
  3.235854136895574E-005
  6.469852574315640E-005
  9.718689997590263E-005
  1.298980395854380E-004
  1.629056602698193E-004
  1.962822424723868E-004
  2.300960256395401E-004
  2.644090798594348E-004
  2.992747633932958E-004
  3.347328003550167E-004
  3.708059474976685E-004
  4.074968673340550E-004
  4.447836761514445E-004
  4.826185996542569E-004
  5.209283571970206E-004
  5.596144878299159E-004
  5.985577884688455E-004
  6.376246423241606E-004
  6.766725751611382E-004
  7.155585498323057E-004
  7.541471251490082E-004
  7.923157228396831E-004
  8.299608299084010E-004
  8.670029575407618E-004
  9.033887321608962E-004
  9.390949754616510E-004
  9.741339640754109E-004
  1.008560100839865E-003
  1.042485402787044E-003
  1.076108421023976E-003
 -1.074891083251082E-003
 -1.041505165593828E-003
 -1.007767171521850E-003
 -9.734537062620983E-004
 -9.384407293060936E-004
 -9.026711502647777E-004
 -8.661370845339498E-004
 -8.288703410074034E-004
 -7.909373537596025E-004
 -7.524342443580051E-004
 -7.134842091380518E-004
 -6.742315450819925E-004
 -6.348339779707894E-004
 -5.954556412920098E-004
 -5.562571135900544E-004
 -5.173856303325425E-004
 -4.789686122745374E-004
 -4.411070872293817E-004
 -4.038716655584252E-004
 -3.673031530295206E-004
 -3.314134464368522E-004
 -2.961883016351653E-004
 -2.615931349460894E-004
 -2.275772867077030E-004
 -1.940781695967614E-004
 -1.610266270762774E-004
 -1.283495860446436E-004
 -9.597181043134040E-005
 -6.381850090697848E-005
 -3.181534197426108E-005
  1.120354377329528E-007
  3.203727400061739E-005
  6.403442643028394E-005
  9.617905772003001E-005
  1.285473626806007E-004
  1.612165285002026E-004
  1.942644384960338E-004
  2.277667549385599E-004
  2.617947945267298E-004
  2.964124820878848E-004
  3.316706179986949E-004
  3.676024319796525E-004
  4.042191592628122E-004
  4.415042744501038E-004
  4.794110177061388E-004
  5.178620832489639E-004
  5.567498571563243E-004
  5.959414556785643E-004
  6.352862729239505E-004
  6.746231586909943E-004
  7.137904678838231E-004
  7.526357563577569E-004
  7.910220854876975E-004
  8.288346772392426E-004
  8.659857610411791E-004
  9.024161749745470E-004
  9.380989388169050E-004
  9.730444708304410E-004
  1.007308378643827E-003
  1.041010244523236E-003
  1.074369710376107E-003
 -1.072814788910585E-003
 -1.039738661546774E-003
 -1.006261501420224E-003
 -9.721364773729808E-004
 -9.372317534415534E-004
 -9.014893693153003E-004
 -8.649036256269039E-004
 -8.275105553234586E-004
 -7.893833246497901E-004
 -7.506282274400069E-004
 -7.113827449978740E-004
 -6.718095119245394E-004
 -6.320877035257983E-004
 -5.924042915105582E-004
 -5.529418357971435E-004
 -5.138664294666084E-004
 -4.753194050862430E-004
 -4.374096408485718E-004
 -4.002092756383893E-004
 -3.637548808285629E-004
 -3.280495577977384E-004
 -2.930672945034742E-004
 -2.587604301224367E-004
 -2.250654285260879E-004
 -1.919082127894297E-004
 -1.592102900322396E-004
 -1.268917878658166E-004
 -9.487324290026662E-005
 -6.307793847534670E-005
 -3.143150592283258E-005
  1.391969879095702E-007
  3.170599426629345E-005
  6.334123933400344E-005
  9.511963143581005E-005
  1.271180279943502E-004
  1.594163918847689E-004
  1.920979223104714E-004
  2.252463484285157E-004
  2.589436730388376E-004
  2.932665962688478E-004
  3.282798280811041E-004
  3.640302436060335E-004
  4.005407487338875E-004
  4.378027092125007E-004
  4.757718663108826E-004
  5.143669792797791E-004
  5.534698636713499E-004
  5.929312049693038E-004
  6.325797596563480E-004
  6.722317722574147E-004
  7.117034459746504E-004
  7.508227073018871E-004
  7.894368228237000E-004
  8.274194944817468E-004
  8.646753151531092E-004
  9.011404029981841E-004
  9.367849136928815E-004
  9.716177567006309E-004
  1.005695379129981E-003
  1.039144384293726E-003
  1.072206517913077E-003
 -1.070218142792061E-003
 -1.037486904098708E-003
 -1.004301914975787E-003
 -9.703928078015041E-004
 -9.356209291096683E-004
 -8.999275487833794E-004
 -8.633079818760057E-004
 -8.258005084551476E-004
 -7.874830887102235E-004
 -7.484711537016383E-004
 -7.089169448117146E-004
 -6.690036207391463E-004
 -6.289354840881173E-004
 -5.889268997996355E-004
 -5.491869640294260E-004
 -5.099043333041596E-004
 -4.712365021538990E-004
 -4.333006978728650E-004
 -3.961693665224931E-004
 -3.598722278840694E-004
 -3.244001010373517E-004
 -2.897114446107055E-004
 -2.557420193190068E-004
 -2.224125675903915E-004
 -1.896355590840975E-004
 -1.573221476393313E-004
 -1.253855422650323E-004
 -9.374270844228671E-005
 -6.231628787416673E-005
 -3.103359281990320E-005
  1.752550116936341E-007
  3.137806872496829E-005
  6.264330116870314E-005
  9.404272979796699E-005
  1.256521350381983E-004
  1.575530219504604E-004
  1.898333773235650E-004
  2.225853618707830E-004
  2.559030570401332E-004
  2.898783898281032E-004
  3.245933674913106E-004
  3.601125117458753E-004
  3.964744896130400E-004
  4.336820700021034E-004
  4.716957386541801E-004
  5.104307657837456E-004
  5.497568534394332E-004
  5.895049417491366E-004
  6.294786424609391E-004
  6.694667564537130E-004
  7.092591120820168E-004
  7.486611269422438E-004
  7.875030817608249E-004
  8.256476056015291E-004
  8.629933283853449E-004
  8.994738587308248E-004
  9.350584209452055E-004
  9.697553548963576E-004
  1.003621569320961E-003
  1.036789471868505E-003
  1.069522807111134E-003
 -1.066974779590261E-003
 -1.034619225063799E-003
 -1.001755749018585E-003
 -9.680919779004163E-004
 -9.334841328379785E-004
 -8.978724617293704E-004
 -8.612509214121917E-004
 -8.236563972899429E-004
 -7.851680173875954E-004
 -7.459079999920848E-004
 -7.060431303171206E-004
 -6.657792878338477E-004
 -6.253502374653316E-004
 -5.850033560421468E-004
 -5.449799024960845E-004
 -5.054955610502003E-004
 -4.667265216069361E-004
 -4.287986171434948E-004
 -3.917826675894253E-004
 -3.556979029757812E-004
 -3.205182659014009E-004
 -2.861819446792940E-004
 -2.526039177522953E-004
 -2.196859995019237E-004
 -1.873252085061727E-004
 -1.554215599876599E-004
 -1.238816409493262E-004
 -9.262002560221931E-005
 -6.156056417051872E-005
 -3.063457574301360E-005
  2.219194150324939E-007
  3.106992310970868E-005
  6.197115650144725E-005
  9.299175989413938E-005
  1.242040134752643E-004
  1.556890522181878E-004
  1.875385065583598E-004
  2.198528677364239E-004
  2.527394785254149E-004
  2.863080914782061E-004
  3.206619656605107E-004
  3.558882417925815E-004
  3.920466901622716E-004
  4.291562929774460E-004
  4.671855707245972E-004
  5.060472806196313E-004
  5.455973604806851E-004
  5.856429930684946E-004
  6.259570198329955E-004
  6.662947573160324E-004
  7.064145636217786E-004
  7.460961811402450E-004
  7.851520784349826E-004
  8.234352234368851E-004
  8.608413606074752E-004
  8.973053750456956E-004
  9.327989046713801E-004
  9.673315681989954E-004
  1.000960482521946E-003
  1.033821834228971E-003
  1.066199652240388E-003
 -1.062928402396637E-003
 -1.030971542526181E-003
 -9.984548386361447E-004
 -9.650676677735343E-004