# vtk DataFile Version 2.0
Output of NLACE
ASCII
DATASET UNSTRUCTURED_GRID
POINTS         3375 FLOAT
 0.000000E+00  0.000000E+00  0.000000E+00
 7.142857E-02  0.000000E+00  0.000000E+00
 1.428571E-01  0.000000E+00  0.000000E+00
 2.142857E-01  0.000000E+00  0.000000E+00
 2.857143E-01  0.000000E+00  0.000000E+00
 3.571429E-01  0.000000E+00  0.000000E+00
 4.285714E-01  0.000000E+00  0.000000E+00
 5.000000E-01  0.000000E+00  0.000000E+00
 5.714286E-01  0.000000E+00  0.000000E+00
 6.428571E-01  0.000000E+00  0.000000E+00
 7.142857E-01  0.000000E+00  0.000000E+00
 7.857143E-01  0.000000E+00  0.000000E+00
 8.571429E-01  0.000000E+00  0.000000E+00
 9.285714E-01  0.000000E+00  0.000000E+00
 1.000000E+00  0.000000E+00  0.000000E+00
 0.000000E+00  7.142857E-02  0.000000E+00
 7.142857E-02  7.142857E-02  0.000000E+00
 1.428571E-01  7.142857E-02  0.000000E+00
 2.142857E-01  7.142857E-02  0.000000E+00
 2.857143E-01  7.142857E-02  0.000000E+00
 3.571429E-01  7.142857E-02  0.000000E+00
 4.285714E-01  7.142857E-02  0.000000E+00
 5.000000E-01  7.142857E-02  0.000000E+00
 5.714286E-01  7.142857E-02  0.000000E+00
 6.428571E-01  7.142857E-02  0.000000E+00
 7.142857E-01  7.142857E-02  0.000000E+00
 7.857143E-01  7.142857E-02  0.000000E+00
 8.571429E-01  7.142857E-02  0.000000E+00
 9.285714E-01  7.142857E-02  0.000000E+00
 1.000000E+00  7.142857E-02  0.000000E+00
 0.000000E+00  1.428571E-01  0.000000E+00
 7.142857E-02  1.428571E-01  0.000000E+00
 1.428571E-01  1.428571E-01  0.000000E+00
 2.142857E-01  1.428571E-01  0.000000E+00
 2.857143E-01  1.428571E-01  0.000000E+00
 3.571429E-01  1.428571E-01  0.000000E+00
 4.285714E-01  1.428571E-01  0.000000E+00
 5.000000E-01  1.428571E-01  0.000000E+00
 5.714286E-01  1.428571E-01  0.000000E+00
 6.428571E-01  1.428571E-01  0.000000E+00
 7.142857E-01  1.428571E-01  0.000000E+00
 7.857143E-01  1.428571E-01  0.000000E+00
 8.571429E-01  1.428571E-01  0.000000E+00
 9.285714E-01  1.428571E-01  0.000000E+00
 1.000000E+00  1.428571E-01  0.000000E+00
 0.000000E+00  2.142857E-01  0.000000E+00
 7.142857E-02  2.142857E-01  0.000000E+00
 1.428571E-01  2.142857E-01  0.000000E+00
 2.142857E-01  2.142857E-01  0.000000E+00
 2.857143E-01  2.142857E-01  0.000000E+00
 3.571429E-01  2.142857E-01  0.000000E+00
 4.285714E-01  2.142857E-01  0.000000E+00
 5.000000E-01  2.142857E-01  0.000000E+00
 5.714286E-01  2.142857E-01  0.000000E+00
 6.428571E-01  2.142857E-01  0.000000E+00
 7.142857E-01  2.142857E-01  0.000000E+00
 7.857143E-01  2.142857E-01  0.000000E+00
 8.571429E-01  2.142857E-01  0.000000E+00
 9.285714E-01  2.142857E-01  0.000000E+00
 1.000000E+00  2.142857E-01  0.000000E+00
 0.000000E+00  2.857143E-01  0.000000E+00
 7.142857E-02  2.857143E-01  0.000000E+00
 1.428571E-01  2.857143E-01  0.000000E+00
 2.142857E-01  2.857143E-01  0.000000E+00
 2.857143E-01  2.857143E-01  0.000000E+00
 3.571429E-01  2.857143E-01  0.000000E+00
 4.285714E-01  2.857143E-01  0.000000E+00
 5.000000E-01  2.857143E-01  0.000000E+00
 5.714286E-01  2.857143E-01  0.000000E+00
 6.428571E-01  2.857143E-01  0.000000E+00
 7.142857E-01  2.857143E-01  0.000000E+00
 7.857143E-01  2.857143E-01  0.000000E+00
 8.571429E-01  2.857143E-01  0.000000E+00
 9.285714E-01  2.857143E-01  0.000000E+00
 1.000000E+00  2.857143E-01  0.000000E+00
 0.000000E+00  3.571429E-01  0.000000E+00
 7.142857E-02  3.571429E-01  0.000000E+00
 1.428571E-01  3.571429E-01  0.000000E+00
 2.142857E-01  3.571429E-01  0.000000E+00
 2.857143E-01  3.571429E-01  0.000000E+00
 3.571429E-01  3.571429E-01  0.000000E+00
 4.285714E-01  3.571429E-01  0.000000E+00
 5.000000E-01  3.571429E-01  0.000000E+00
 5.714286E-01  3.571429E-01  0.000000E+00
 6.428571E-01  3.571429E-01  0.000000E+00
 7.142857E-01  3.571429E-01  0.000000E+00
 7.857143E-01  3.571429E-01  0.000000E+00
 8.571429E-01  3.571429E-01  0.000000E+00
 9.285714E-01  3.571429E-01  0.000000E+00
 1.000000E+00  3.571429E-01  0.000000E+00
 0.000000E+00  4.285714E-01  0.000000E+00
 7.142857E-02  4.285714E-01  0.000000E+00
 1.428571E-01  4.285714E-01  0.000000E+00
 2.142857E-01  4.285714E-01  0.000000E+00
 2.857143E-01  4.285714E-01  0.000000E+00
 3.571429E-01  4.285714E-01  0.000000E+00
 4.285714E-01  4.285714E-01  0.000000E+00
 5.000000E-01  4.285714E-01  0.000000E+00
 5.714286E-01  4.285714E-01  0.000000E+00
 6.428571E-01  4.285714E-01  0.000000E+00
 7.142857E-01  4.285714E-01  0.000000E+00
 7.857143E-01  4.285714E-01  0.000000E+00
 8.571429E-01  4.285714E-01  0.000000E+00
 9.285714E-01  4.285714E-01  0.000000E+00
 1.000000E+00  4.285714E-01  0.000000E+00
 0.000000E+00  5.000000E-01  0.000000E+00
 7.142857E-02  5.000000E-01  0.000000E+00
 1.428571E-01  5.000000E-01  0.000000E+00
 2.142857E-01  5.000000E-01  0.000000E+00
 2.857143E-01  5.000000E-01  0.000000E+00
 3.571429E-01  5.000000E-01  0.000000E+00
 4.285714E-01  5.000000E-01  0.000000E+00
 5.000000E-01  5.000000E-01  0.000000E+00
 5.714286E-01  5.000000E-01  0.000000E+00
 6.428571E-01  5.000000E-01  0.000000E+00
 7.142857E-01  5.000000E-01  0.000000E+00
 7.857143E-01  5.000000E-01  0.000000E+00
 8.571429E-01  5.000000E-01  0.000000E+00
 9.285714E-01  5.000000E-01  0.000000E+00
 1.000000E+00  5.000000E-01  0.000000E+00
 0.000000E+00  5.714286E-01  0.000000E+00
 7.142857E-02  5.714286E-01  0.000000E+00
 1.428571E-01  5.714286E-01  0.000000E+00
 2.142857E-01  5.714286E-01  0.000000E+00
 2.857143E-01  5.714286E-01  0.000000E+00
 3.571429E-01  5.714286E-01  0.000000E+00
 4.285714E-01  5.714286E-01  0.000000E+00
 5.000000E-01  5.714286E-01  0.000000E+00
 5.714286E-01  5.714286E-01  0.000000E+00
 6.428571E-01  5.714286E-01  0.000000E+00
 7.142857E-01  5.714286E-01  0.000000E+00
 7.857143E-01  5.714286E-01  0.000000E+00
 8.571429E-01  5.714286E-01  0.000000E+00
 9.285714E-01  5.714286E-01  0.000000E+00
 1.000000E+00  5.714286E-01  0.000000E+00
 0.000000E+00  6.428571E-01  0.000000E+00
 7.142857E-02  6.428571E-01  0.000000E+00
 1.428571E-01  6.428571E-01  0.000000E+00
 2.142857E-01  6.428571E-01  0.000000E+00
 2.857143E-01  6.428571E-01  0.000000E+00
 3.571429E-01  6.428571E-01  0.000000E+00
 4.285714E-01  6.428571E-01  0.000000E+00
 5.000000E-01  6.428571E-01  0.000000E+00
 5.714286E-01  6.428571E-01  0.000000E+00
 6.428571E-01  6.428571E-01  0.000000E+00
 7.142857E-01  6.428571E-01  0.000000E+00
 7.857143E-01  6.428571E-01  0.000000E+00
 8.571429E-01  6.428571E-01  0.000000E+00
 9.285714E-01  6.428571E-01  0.000000E+00
 1.000000E+00  6.428571E-01  0.000000E+00
 0.000000E+00  7.142857E-01  0.000000E+00
 7.142857E-02  7.142857E-01  0.000000E+00
 1.428571E-01  7.142857E-01  0.000000E+00
 2.142857E-01  7.142857E-01  0.000000E+00
 2.857143E-01  7.142857E-01  0.000000E+00
 3.571429E-01  7.142857E-01  0.000000E+00
 4.285714E-01  7.142857E-01  0.000000E+00
 5.000000E-01  7.142857E-01  0.000000E+00
 5.714286E-01  7.142857E-01  0.000000E+00
 6.428571E-01  7.142857E-01  0.000000E+00
 7.142857E-01  7.142857E-01  0.000000E+00
 7.857143E-01  7.142857E-01  0.000000E+00
 8.571429E-01  7.142857E-01  0.000000E+00
 9.285714E-01  7.142857E-01  0.000000E+00
 1.000000E+00  7.142857E-01  0.000000E+00
 0.000000E+00  7.857143E-01  0.000000E+00
 7.142857E-02  7.857143E-01  0.000000E+00
 1.428571E-01  7.857143E-01  0.000000E+00
 2.142857E-01  7.857143E-01  0.000000E+00
 2.857143E-01  7.857143E-01  0.000000E+00
 3.571429E-01  7.857143E-01  0.000000E+00
 4.285714E-01  7.857143E-01  0.000000E+00
 5.000000E-01  7.857143E-01  0.000000E+00
 5.714286E-01  7.857143E-01  0.000000E+00
 6.428571E-01  7.857143E-01  0.000000E+00
 7.142857E-01  7.857143E-01  0.000000E+00
 7.857143E-01  7.857143E-01  0.000000E+00
 8.571429E-01  7.857143E-01  0.000000E+00
 9.285714E-01  7.857143E-01  0.000000E+00
 1.000000E+00  7.857143E-01  0.000000E+00
 0.000000E+00  8.571429E-01  0.000000E+00
 7.142857E-02  8.571429E-01  0.000000E+00
 1.428571E-01  8.571429E-01  0.000000E+00
 2.142857E-01  8.571429E-01  0.000000E+00
 2.857143E-01  8.571429E-01  0.000000E+00
 3.571429E-01  8.571429E-01  0.000000E+00
 4.285714E-01  8.571429E-01  0.000000E+00
 5.000000E-01  8.571429E-01  0.000000E+00
 5.714286E-01  8.571429E-01  0.000000E+00
 6.428571E-01  8.571429E-01  0.000000E+00
 7.142857E-01  8.571429E-01  0.000000E+00
 7.857143E-01  8.571429E-01  0.000000E+00
 8.571429E-01  8.571429E-01  0.000000E+00
 9.285714E-01  8.571429E-01  0.000000E+00
 1.000000E+00  8.571429E-01  0.000000E+00
 0.000000E+00  9.285714E-01  0.000000E+00
 7.142857E-02  9.285714E-01  0.000000E+00
 1.428571E-01  9.285714E-01  0.000000E+00
 2.142857E-01  9.285714E-01  0.000000E+00
 2.857143E-01  9.285714E-01  0.000000E+00
 3.571429E-01  9.285714E-01  0.000000E+00
 4.285714E-01  9.285714E-01  0.000000E+00
 5.000000E-01  9.285714E-01  0.000000E+00
 5.714286E-01  9.285714E-01  0.000000E+00
 6.428571E-01  9.285714E-01  0.000000E+00
 7.142857E-01  9.285714E-01  0.000000E+00
 7.857143E-01  9.285714E-01  0.000000E+00
 8.571429E-01  9.285714E-01  0.000000E+00
 9.285714E-01  9.285714E-01  0.000000E+00
 1.000000E+00  9.285714E-01  0.000000E+00
 0.000000E+00  1.000000E+00  0.000000E+00
 7.142857E-02  1.000000E+00  0.000000E+00
 1.428571E-01  1.000000E+00  0.000000E+00
 2.142857E-01  1.000000E+00  0.000000E+00
 2.857143E-01  1.000000E+00  0.000000E+00
 3.571429E-01  1.000000E+00  0.000000E+00
 4.285714E-01  1.000000E+00  0.000000E+00
 5.000000E-01  1.000000E+00  0.000000E+00
 5.714286E-01  1.000000E+00  0.000000E+00
 6.428571E-01  1.000000E+00  0.000000E+00
 7.142857E-01  1.000000E+00  0.000000E+00
 7.857143E-01  1.000000E+00  0.000000E+00
 8.571429E-01  1.000000E+00  0.000000E+00
 9.285714E-01  1.000000E+00  0.000000E+00
 1.000000E+00  1.000000E+00  0.000000E+00
 0.000000E+00  0.000000E+00 -7.142857E-02
 7.142857E-02  0.000000E+00 -7.142857E-02
 1.428571E-01  0.000000E+00 -7.142857E-02
 2.142857E-01  0.000000E+00 -7.142857E-02
 2.857143E-01  0.000000E+00 -7.142857E-02
 3.571429E-01  0.000000E+00 -7.142857E-02
 4.285714E-01  0.000000E+00 -7.142857E-02
 5.000000E-01  0.000000E+00 -7.142857E-02
 5.714286E-01  0.000000E+00 -7.142857E-02
 6.428571E-01  0.000000E+00 -7.142857E-02
[...]
POINT_DATA         3375
 SCALARS predictedDisp11 float  1                  
LOOKUP_TABLE default
 0.00000E+00
-4.17593E-05
-7.22351E-05
-9.50178E-05
-9.17001E-05
-7.75506E-05
-4.14521E-05
-6.66733E-13
 4.14521E-05
 7.75506E-05
 9.17001E-05
 9.50177E-05
 7.22350E-05
 4.17593E-05
 0.00000E+00
 0.00000E+00
-6.51460E-05
-1.17898E-04
-1.51243E-04
-1.52524E-04
-1.26221E-04
-6.98601E-05
-7.82285E-13
 6.98601E-05
 1.26221E-04
 1.52524E-04
 1.51243E-04
 1.17898E-04
 6.51460E-05
 0.00000E+00
 0.00000E+00
-1.18001E-04
-2.20290E-04
-2.73894E-04
-2.86561E-04
-2.28182E-04
-1.31660E-04
-1.93649E-13
 1.31660E-04
 2.28182E-04
 2.86561E-04
 2.73894E-04
 2.20290E-04
 1.18001E-04
 0.00000E+00
 0.00000E+00
-1.91440E-04
-3.41050E-04
-4.45929E-04
-4.42709E-04
-3.72782E-04
-2.03088E-04
 5.70773E-13
 2.03088E-04
 3.72782E-04
 4.42709E-04
 4.45929E-04
 3.41050E-04
 1.91440E-04
 0.00000E+00
 0.00000E+00
-2.59557E-04
-4.88463E-04
-6.03796E-04
-6.37106E-04
-5.03941E-04
-2.93629E-04
 1.25285E-12
 2.93629E-04
 5.03941E-04
 6.37106E-04
 6.03796E-04
 4.88463E-04
 2.59557E-04
 0.00000E+00
 0.00000E+00
-3.34624E-04
-5.94498E-04
-7.81981E-04
-7.73374E-04
-6.55149E-04
-3.54395E-04
 1.63557E-12
 3.54395E-04
 6.55149E-04
 7.73374E-04
 7.81981E-04
 5.94498E-04
 3.34624E-04
 0.00000E+00
 0.00000E+00
-3.70781E-04
-7.00514E-04
-8.64196E-04
-9.15073E-04
-7.18152E-04
-4.17075E-04
 1.79654E-12
 4.17075E-04
 7.18152E-04
 9.15073E-04
 8.64196E-04
 7.00514E-04
 3.70781E-04
 0.00000E+00
 0.00000E+00
-3.99340E-04
-7.08927E-04
-9.34713E-04
-9.21149E-04
-7.77536E-04
-4.17622E-04
 1.77971E-12
 4.17622E-04
 7.77536E-04
 9.21149E-04
 9.34713E-04
 7.08927E-04
 3.99341E-04
 0.00000E+00
 0.00000E+00
-3.70781E-04
-7.00514E-04
-8.64196E-04
-9.15073E-04
-7.18152E-04
-4.17075E-04
 1.69965E-12
 4.17075E-04
 7.18152E-04
 9.15073E-04
 8.64196E-04
 7.00514E-04
 3.70781E-04
 0.00000E+00
 0.00000E+00
-3.34624E-04
-5.94498E-04
-7.81981E-04
-7.73374E-04
-6.55149E-04
-3.54395E-04
 1.49423E-12
 3.54395E-04
 6.55149E-04
 7.73374E-04
 7.81981E-04
 5.94498E-04
 3.34624E-04
 0.00000E+00
 0.00000E+00
-2.59557E-04
-4.88463E-04
-6.03796E-04
-6.37106E-04
-5.03941E-04
-2.93629E-04
 1.17540E-12
 2.93629E-04
 5.03941E-04
 6.37106E-04
 6.03796E-04
 4.88463E-04
 2.59557E-04
 0.00000E+00
 0.00000E+00
-1.91440E-04
-3.41050E-04
-4.45929E-04
-4.42709E-04
-3.72782E-04
-2.03088E-04
 7.34630E-13
 2.03088E-04
 3.72782E-04
 4.42709E-04
 4.45929E-04
 3.41050E-04
 1.91440E-04
 0.00000E+00
 0.00000E+00
-1.18001E-04
-2.20290E-04
-2.73894E-04
-2.86561E-04
-2.28182E-04
-1.31660E-04
 3.58343E-13
 1.31660E-04
 2.28182E-04
 2.86561E-04
 2.73894E-04
 2.20290E-04
 1.18001E-04
 0.00000E+00
 0.00000E+00
-6.51460E-05
-1.17898E-04
-1.51243E-04
-1.52524E-04
-1.26221E-04
-6.98601E-05
 1.88334E-13
 6.98601E-05
 1.26221E-04
 1.52524E-04
 1.51243E-04
 1.17898E-04
 6.51460E-05
 0.00000E+00
 0.00000E+00
-4.17593E-05
-7.22351E-05
-9.50177E-05
-9.17000E-05
-7.75505E-05
-4.14521E-05
 3.70717E-13
 4.14521E-05
 7.75505E-05
 9.17000E-05
 9.50177E-05
 7.22350E-05
 4.17593E-05
 0.00000E+00
 0.00000E+00
-2.30835E-05
-4.46872E-05
-5.12329E-05
-5.52837E-05
-4.09603E-05
-2.45910E-05
-6.43555E-13
 2.45910E-05
 4.09603E-05
 5.52836E-05
 5.12329E-05
 4.46872E-05
 2.30835E-05
 0.00000E+00
 0.00000E+00
-5.47778E-05
-1.01226E-04
-1.26983E-04
-1.31922E-04
-1.05919E-04
-6.08057E-05
-7.22489E-13
 6.08057E-05
 1.05919E-04
 1.31922E-04
 1.26983E-04
 1.01226E-04
 5.47778E-05
 0.00000E+00
 0.00000E+00
-1.13810E-04
-2.03482E-04
-2.65568E-04
-2.64667E-04
-2.22424E-04
-1.21495E-04
-2.00404E-13
 1.21495E-04
 2.22424E-04
 2.64667E-04
 2.65568E-04
 2.03482E-04
 1.13810E-04
 0.00000E+00
 0.00000E+00
-1.81449E-04
-3.41086E-04
-4.22452E-04
-4.45056E-04
-3.52264E-04
-2.04588E-04
 5.73843E-13
 2.04588E-04
 3.52264E-04
 4.45056E-04
 4.22452E-04
 3.41086E-04
 1.81449E-04
 0.00000E+00
 0.00000E+00
-2.62960E-04
-4.67651E-04
-6.14583E-04
-6.07874E-04
-5.14667E-04
-2.78959E-04
 1.19161E-12
 2.78959E-04
 5.14667E-04
 6.07874E-04
 6.14583E-04
 4.67651E-04
 2.62960E-04
 0.00000E+00
 0.00000E+00
-3.22195E-04
-6.08598E-04
-7.50431E-04
-7.94827E-04
-6.24725E-04
-3.65092E-04
 1.57566E-12
 3.65092E-04
 6.24725E-04
 7.94827E-04
 7.50431E-04
 6.08598E-04
 3.22196E-04
 0.00000E+00
 0.00000E+00
-3.80479E-04
-6.75045E-04
-8.90851E-04
-8.75870E-04
-7.39974E-04
-3.95887E-04
 1.68949E-12
 3.95887E-04
 7.39974E-04
 8.75870E-04
 8.90851E-04
 6.75045E-04
 3.80479E-04
 0.00000E+00
 0.00000E+00
-3.85703E-04
-7.30096E-04
-8.98446E-04
-9.52005E-04
-7.40505E-04
-4.27186E-04
 1.69599E-12
 4.27186E-04
 7.40505E-04
 9.52005E-04
 8.98446E-04
 7.30096E-04
 3.85703E-04
 0.00000E+00
 0.00000E+00
-3.80479E-04
-6.75045E-04
-8.90851E-04
-8.75870E-04
-7.39974E-04
-3.95887E-04
 1.59847E-12
 3.95887E-04
 7.39974E-04
 8.75870E-04
 8.90851E-04
 6.75045E-04
 3.80479E-04
 0.00000E+00
 0.00000E+00
-3.22195E-04
-6.08598E-04
-7.50431E-04
-7.94827E-04
-6.24725E-04
-3.65092E-04
 1.44243E-12
 3.65092E-04
 6.24725E-04
 7.94827E-04
 7.50431E-04
 6.08598E-04
 3.22196E-04
 0.00000E+00
 0.00000E+00
-2.62960E-04
-4.67651E-04
-6.14583E-04
-6.07874E-04
-5.14667E-04
-2.78959E-04
 1.12677E-12
 2.78959E-04
 5.14667E-04
 6.07874E-04
 6.14583E-04
 4.67651E-04
 2.62960E-04
 0.00000E+00
 0.00000E+00
-1.81449E-04
-3.41086E-04
-4.22452E-04
-4.45056E-04
-3.52264E-04
-2.04588E-04
 7.30978E-13
 2.04588E-04
 3.52264E-04
 4.45056E-04
 4.22452E-04
 3.41086E-04
 1.81449E-04
 0.00000E+00
 0.00000E+00
-1.13810E-04
-2.03482E-04
-2.65568E-04
-2.64667E-04
-2.22424E-04
-1.21495E-04
 3.55946E-13
 1.21495E-04
 2.22424E-04
 2.64667E-04
 2.65568E-04
 2.03482E-04
 1.13810E-04
 0.00000E+00
 0.00000E+00
-5.47778E-05
-1.01226E-04
-1.26983E-04
-1.31922E-04
-1.05919E-04
-6.08057E-05
 2.12932E-13
 6.08057E-05
 1.05919E-04
 1.31922E-04
 1.26983E-04
 1.01226E-04
 5.47778E-05
 0.00000E+00
 0.00000E+00
-2.30835E-05
-4.46872E-05
-5.12329E-05
-5.52836E-05
-4.09603E-05
-2.45910E-05
 3.75236E-13
 2.45910E-05
 4.09603E-05
 5.52836E-05
 5.12329E-05
 4.46872E-05
 2.30835E-05
 0.00000E+00
 0.00000E+00
 2.56665E-05
 5.14472E-05
 6.42165E-05
 7.17942E-05
 5.67217E-05
 3.40892E-05
-4.90310E-13
-3.40892E-05
-5.67217E-05
-7.17942E-05
-6.42165E-05
-5.14472E-05
-2.56665E-05
 0.00000E+00
 0.00000E+00
-2.60065E-05
-4.58610E-05
-6.11752E-05
-6.02792E-05
-5.27502E-05
-2.82362E-05
-6.37539E-13
 2.82362E-05
 5.27502E-05
 6.02792E-05
 6.11752E-05
 4.58610E-05
 2.60065E-05
 0.00000E+00
 0.00000E+00
-9.04028E-05
-1.70523E-04
-2.11912E-04
-2.25311E-04
-1.78524E-04
-1.04243E-04
-1.31542E-13
 1.04243E-04
 1.78524E-04
 2.25311E-04
 2.11912E-04
 1.70523E-04
 9.04028E-05
 0.00000E+00
 0.00000E+00
-1.68630E-04
-3.00887E-04
-3.97243E-04
-3.93220E-04
-3.32118E-04
-1.79154E-04
 5.23251E-13
 1.79154E-04
 3.32118E-04
 3.93220E-04
 3.97243E-04
 3.00887E-04
 1.68630E-04
 0.00000E+00
 0.00000E+00
-2.40957E-04
-4.56637E-04
-5.62615E-04
-5.94633E-04
-4.64432E-04
-2.72648E-04
 1.08618E-12
 2.72648E-04
 4.64432E-04
 5.94633E-04
 5.62615E-04
 4.56637E-04
 2.40957E-04
 0.00000E+00
 0.00000E+00
-3.20701E-04
-5.67750E-04
-7.48338E-04
-7.29046E-04
-6.19572E-04
-3.25112E-04
 1.35963E-12
 3.25112E-04
 6.19572E-04
 7.29046E-04
 7.48338E-04
 5.67750E-04
 3.20701E-04
 0.00000E+00
 0.00000E+00
-3.58811E-04
-6.80075E-04
-8.29597E-04
-8.77787E-04
-6.65264E-04
-3.83419E-04
 1.44403E-12
 3.83419E-04
 6.65264E-04
 8.77787E-04
 8.29597E-04
 6.80075E-04
 3.58811E-04
 0.00000E+00
 0.00000E+00
-3.89727E-04
-6.87300E-04
-9.07067E-04
-8.70911E-04
-7.29204E-04
-3.78540E-04
 1.41415E-12
 3.78540E-04
 7.29204E-04
 8.70911E-04
 9.07067E-04
 6.87300E-04
 3.89727E-04
 0.00000E+00
 0.00000E+00
-3.58811E-04
-6.80075E-04
-8.29597E-04
-8.77787E-04
-6.65264E-04
-3.83419E-04
 1.37137E-12
 3.83419E-04
 6.65264E-04
 8.77787E-04
 8.29597E-04
 6.80075E-04
 3.58811E-04
 0.00000E+00
 0.00000E+00
-3.20701E-04
-5.67750E-04
-7.48338E-04
-7.29046E-04
-6.19572E-04
-3.25112E-04
 1.25733E-12
 3.25112E-04
 6.19572E-04
 7.29046E-04
 7.48338E-04
 5.67750E-04
 3.20701E-04
 0.00000E+00
 0.00000E+00
-2.40957E-04
-4.56637E-04
-5.62615E-04
-5.94633E-04
-4.64432E-04
-2.72648E-04
 1.04429E-12
 2.72648E-04
 4.64432E-04
 5.94633E-04
 5.62615E-04
 4.56637E-04
 2.40957E-04
 0.00000E+00
 0.00000E+00
-1.68630E-04
-3.00887E-04
-3.97243E-04
-3.93220E-04
-3.32118E-04
-1.79154E-04
 6.97614E-13
 1.79154E-04
 3.32118E-04
 3.93220E-04
 3.97243E-04
 3.00887E-04
 1.68630E-04
 0.00000E+00
 0.00000E+00
-9.04028E-05
-1.70523E-04
-2.11912E-04
-2.25311E-04
-1.78524E-04
-1.04243E-04
 3.85838E-13
 1.04243E-04
 1.78524E-04
 2.25311E-04
 2.11912E-04
 1.70523E-04
 9.04028E-05
 0.00000E+00
 0.00000E+00
-2.60065E-05
-4.58610E-05
-6.11753E-05
-6.02792E-05
-5.27502E-05
-2.82362E-05
 2.46147E-13
 2.82362E-05
 5.27502E-05
 6.02792E-05
 6.11753E-05
 4.58610E-05
 2.60065E-05
 0.00000E+00
 0.00000E+00
 2.56665E-05
 5.14472E-05
 6.42165E-05
 7.17942E-05
 5.67217E-05
 3.40892E-05
 4.35968E-13
-3.40892E-05
-5.67217E-05
-7.17942E-05
-6.42165E-05
-5.14472E-05
-2.56665E-05
 0.00000E+00
 0.00000E+00
 1.09263E-04
 2.01707E-04
 2.64345E-04
 2.72914E-04
 2.28073E-04
 1.27915E-04
-3.16995E-13
-1.27915E-04
-2.28073E-04
-2.72914E-04
-2.64345E-04
-2.01707E-04
-1.09263E-04
 0.00000E+00
 0.00000E+00
 2.35272E-05
 4.06653E-05
 5.49778E-05
 5.07878E-05
 4.36370E-05
 2.10736E-05
-4.48662E-13
-2.10736E-05
-4.36370E-05
-5.07878E-05
-5.49778E-05
-4.06653E-05
-2.35272E-05
 0.00000E+00
 0.00000E+00
-5.63685E-05
-9.94434E-05
-1.34403E-04
-1.34557E-04
-1.19242E-04
-6.42103E-05
-7.00013E-14
 6.42103E-05
 1.19242E-04
 1.34557E-04
 1.34403E-04
 9.94434E-05
 5.63685E-05
 0.00000E+00
 0.00000E+00
-1.30606E-04
-2.47736E-04
-3.08773E-04
-3.33552E-04
-2.57372E-04
-1.46513E-04
 5.23003E-13
 1.46513E-04
 2.57372E-04
 3.33552E-04
 3.08773E-04
 2.47736E-04
 1.30606E-04
 0.00000E+00
 0.00000E+00
-2.15489E-04
-3.84023E-04
-5.13092E-04
-4.90308E-04
-4.04116E-04
-2.09432E-04
 9.34225E-13
 2.09432E-04
 4.04116E-04
 4.90308E-04
 5.13092E-04
 3.84023E-04
 2.15489E-04
 0.00000E+00
 0.00000E+00
-2.80943E-04
-5.35426E-04
-6.38918E-04
-6.54232E-04
-4.80214E-04
-2.58981E-04
 1.10107E-12
 2.58981E-04
 4.80214E-04
 6.54232E-04
 6.38918E-04
 5.35426E-04
 2.80943E-04
 0.00000E+00
 0.00000E+00
-3.44203E-04
-5.98392E-04
-7.75643E-04
-7.02032E-04
-5.44585E-04
-2.87665E-04
 1.07468E-12
 2.87665E-04
 5.44585E-04
 7.02032E-04
 7.75643E-04
 5.98392E-04
 3.44203E-04
 0.00000E+00
 0.00000E+00
-3.49568E-04
-6.59134E-04
-7.67157E-04
-7.62027E-04
-5.59700E-04
-2.94207E-04
 1.06311E-12
 2.94207E-04
 5.59700E-04
 7.62027E-04
 7.67157E-04
 6.59134E-04
 3.49568E-04
 0.00000E+00
 0.00000E+00
-3.44203E-04
-5.98392E-04
-7.75643E-04
-7.02032E-04
-5.44585E-04
-2.87665E-04
 1.03608E-12
 2.87665E-04
 5.44585E-04
 7.02032E-04
 7.75643E-04
 5.98392E-04
 3.44203E-04
 0.00000E+00
 0.00000E+00
-2.80943E-04
-5.35426E-04
-6.38918E-04
-6.54232E-04
-4.80214E-04
-2.58981E-04
 1.05222E-12
 2.58981E-04
 4.80214E-04
 6.54232E-04
 6.38918E-04
 5.35426E-04
 2.80943E-04
 0.00000E+00
 0.00000E+00
-2.15489E-04
-3.84023E-04
-5.13092E-04
-4.90308E-04
-4.04116E-04
-2.09432E-04
 9.46403E-13
 2.09432E-04
 4.04116E-04
 4.90308E-04
 5.13092E-04
 3.84023E-04
 2.15489E-04
 0.00000E+00
 0.00000E+00
-1.30606E-04
-2.47736E-04
-3.08773E-04
-3.33552E-04
-2.57372E-04
-1.46513E-04
 7.05602E-13
 1.46513E-04
 2.57372E-04
 3.33552E-04
 3.08773E-04
 2.47736E-04
 1.30606E-04
 0.00000E+00
 0.00000E+00
-5.63685E-05
-9.94434E-05
-1.34403E-04
-1.34557E-04
-1.19242E-04
-6.42103E-05
 4.26429E-13
 6.42103E-05
 1.19242E-04
 1.34557E-04
 1.34403E-04
 9.94434E-05
 5.63685E-05
 0.00000E+00
 0.00000E+00
 2.35271E-05
 4.06652E-05
 5.49777E-05
 5.07877E-05
 4.36370E-05
 2.10736E-05
 3.29263E-13
-2.10736E-05
-4.36370E-05
-5.07877E-05
-5.49777E-05
-4.06652E-05
-2.35271E-05
 0.00000E+00
 0.00000E+00
 1.09263E-04
 2.01707E-04
 2.64345E-04
 2.72914E-04
 2.28073E-04
 1.27915E-04
 5.02733E-13
-1.27915E-04
-2.28073E-04
-2.72914E-04
-2.64345E-04
-2.01707E-04
-1.09263E-04
 0.00000E+00
 0.00000E+00
 2.16318E-04
 4.00751E-04
 5.22777E-04
 5.44546E-04
 4.52926E-04
 2.57160E-04
-4.82139E-14
-2.57160E-04
-4.52926E-04
-5.44546E-04
-5.22777E-04
-4.00751E-04
-2.16318E-04
 0.00000E+00
 0.00000E+00
 8.50498E-05
 1.59818E-04
 1.99653E-04
 2.08063E-04
 1.62545E-04
 9.31192E-05
-2.72393E-13
-9.31192E-05
-1.62545E-04
-2.08063E-04
-1.99653E-04
-1.59818E-04
-8.50498E-05
 0.00000E+00
 0.00000E+00
-4.18670E-06
-1.05332E-05
-1.13003E-05
-2.06527E-05
-2.21410E-05
-2.34449E-05
 9.06638E-14
 2.34449E-05
 2.21410E-05
 2.06527E-05
 1.13003E-05
 1.05332E-05
 4.18670E-06
 0.00000E+00
 0.00000E+00
-8.30398E-05
-1.46673E-04
-1.93782E-04
-2.01456E-04
-1.80598E-04
-9.49654E-05
 5.60797E-13
 9.49654E-05
 1.80598E-04
 2.01456E-04
 1.93782E-04
 1.46673E-04
 8.30398E-05
 0.00000E+00
 0.00000E+00
-1.55643E-04
-2.91877E-04
-3.57492E-04
-3.83086E-04
-2.87740E-04
-1.48485E-04
 8.88939E-13
 1.48485E-04
 2.87740E-04
 3.83086E-04
 3.57492E-04
 2.91877E-04
 1.55643E-04
 0.00000E+00
 0.00000E+00
-2.35122E-04
-4.07359E-04
-5.26598E-04
-4.72663E-04
-3.34134E-04
-1.66511E-04
 9.53956E-13
 1.66511E-04
 3.34134E-04
 4.72663E-04
 5.26598E-04
 4.07359E-04
 2.35122E-04
 0.00000E+00
 0.00000E+00
-2.78431E-04
-5.18099E-04
-5.64757E-04
-4.99117E-04
-3.45519E-04
-1.71205E-04
 9.29785E-13
 1.71205E-04
 3.45519E-04
 4.99117E-04
 5.64757E-04
 5.18099E-04
 2.78431E-04
 0.00000E+00
 0.00000E+00
-3.14780E-04
-5.17887E-04
-6.17620E-04
-5.12492E-04
-3.30504E-04
-1.76238E-04
 8.86965E-13
 1.76238E-04
 3.30504E-04
 5.12492E-04
 6.17620E-04
 5.17887E-04
 3.14781E-04
 0.00000E+00
 0.00000E+00
-2.78431E-04
-5.18099E-04
-5.64757E-04
-4.99117E-04
-3.45519E-04
-1.71205E-04
 9.21158E-13
 1.71205E-04
 3.45519E-04
 4.99117E-04
 5.64757E-04
 5.18099E-04
 2.78431E-04
 0.00000E+00
 0.00000E+00
-2.35122E-04
-4.07359E-04
-5.26598E-04
-4.72663E-04
-3.34134E-04
-1.66511E-04
 9.65757E-13
 1.66511E-04
 3.34134E-04
 4.72663E-04
 5.26598E-04
 4.07359E-04
 2.35122E-04
 0.00000E+00
 0.00000E+00
-1.55643E-04
-2.91877E-04
-3.57492E-04
-3.83086E-04
-2.87740E-04
-1.48485E-04
 9.54094E-13
 1.48485E-04
 2.87740E-04
 3.83086E-04
 3.57492E-04
 2.91877E-04
 1.55643E-04
 0.00000E+00
 0.00000E+00
-8.30398E-05
-1.46673E-04
-1.93782E-04
-2.01456E-04
-1.80598E-04
-9.49654E-05
 7.75026E-13
 9.49654E-05
 1.80598E-04
 2.01456E-04
 1.93782E-04
 1.46673E-04
 8.30398E-05
 0.00000E+00
 0.00000E+00
-4.18670E-06
-1.05332E-05
-1.13003E-05
-2.06527E-05
-2.21410E-05
-2.34449E-05
 5.37581E-13
 2.34449E-05
 2.21410E-05
 2.06527E-05
 1.13003E-05
 1.05332E-05
 4.18670E-06
 0.00000E+00
 0.00000E+00
 8.50497E-05
 1.59818E-04
 1.99653E-04
 2.08063E-04
 1.62545E-04
 9.31192E-05
 4.13953E-13
-9.31192E-05
-1.62545E-04
-2.08063E-04
-1.99653E-04
-1.59818E-04
-8.50497E-05
 0.00000E+00
 0.00000E+00
 2.16318E-04
 4.00751E-04
 5.22777E-04
 5.44546E-04
 4.52926E-04
 2.57160E-04
 6.28713E-13
-2.57160E-04
-4.52926E-04
-5.44546E-04
-5.22777E-04
-4.00751E-04
-2.16318E-04
 0.00000E+00
 0.00000E+00
 3.30740E-04
 6.20330E-04
 8.02086E-04
 8.46267E-04
 7.00873E-04
 4.02069E-04
 1.71936E-13
-4.02069E-04
-7.00873E-04
-8.46267E-04
-8.02086E-04
-6.20330E-04
-3.30740E-04
 0.00000E+00
 0.00000E+00
 1.55310E-04
 2.81310E-04
 3.65503E-04
 3.67654E-04
 3.05331E-04
 1.69555E-04
-2.45567E-14
-1.69555E-04
-3.05331E-04
-3.67654E-04
-3.65503E-04
-2.81310E-04
-1.55310E-04
 0.00000E+00
 0.00000E+00
 5.01777E-05
 9.30268E-05
 1.15305E-04
 1.07788E-04
 7.49904E-05
 3.91258E-05
 2.70674E-13
-3.91258E-05
-7.49904E-05
-1.07788E-04
-1.15305E-04
-9.30268E-05
-5.01777E-05
 0.00000E+00
 0.00000E+00
-2.27801E-05
-4.08126E-05
-5.94076E-05
-7.46283E-05
-5.55118E-05
-5.14727E-05
 7.27627E-13
 5.14727E-05
 5.55119E-05
 7.46283E-05
 5.94076E-05
 4.08126E-05
 2.27801E-05
 0.00000E+00
 0.00000E+00
-9.43483E-05
-1.63824E-04
-1.98624E-04
-1.99850E-04
-1.72836E-04
-9.59377E-05
 9.42860E-13
 9.59377E-05
 1.72836E-04
 1.99850E-04
 1.98624E-04
 1.63824E-04
 9.43483E-05
 0.00000E+00
 0.00000E+00
-1.57999E-04
-2.87322E-04
-3.26241E-04
-2.89834E-04
-2.18642E-04
-1.19449E-04
 9.81234E-13
 1.19449E-04
 2.18642E-04
 2.89834E-04
 3.26241E-04
 2.87322E-04
 1.57999E-04
 0.00000E+00
 0.00000E+00
-2.19857E-04
-3.54223E-04
-3.98765E-04
-3.29955E-04
-2.23321E-04
-1.18668E-04
 9.37797E-13
 1.18668E-04
 2.23321E-04
 3.29955E-04
 3.98765E-04
 3.54223E-04
 2.19857E-04
 0.00000E+00
 0.00000E+00
-2.27640E-04
-4.15520E-04
-4.21621E-04
-3.25235E-04
-2.28388E-04
-1.11274E-04
 9.09743E-13
 1.11274E-04
 2.28388E-04
 3.25235E-04
 4.21621E-04
 4.15520E-04
 2.27640E-04
 0.00000E+00
 0.00000E+00
-2.19857E-04
-3.54223E-04
-3.98765E-04
-3.29955E-04
-2.23321E-04
-1.18668E-04
 9.46876E-13
 1.18668E-04
 2.23321E-04
 3.29955E-04
 3.98765E-04
 3.54223E-04
 2.19857E-04
 0.00000E+00
 0.00000E+00
-1.57999E-04
-2.87322E-04
-3.26241E-04
-2.89834E-04
-2.18642E-04
-1.19449E-04
 1.01791E-12
 1.19449E-04
 2.18642E-04
 2.89834E-04
 3.26241E-04
 2.87322E-04
 1.57999E-04
 0.00000E+00
 0.00000E+00
-9.43483E-05
-1.63824E-04
-1.98624E-04
-1.99850E-04
-1.72836E-04
-9.59377E-05
 1.05051E-12
 9.59377E-05
 1.72836E-04
 1.99850E-04
 1.98624E-04
 1.63824E-04
 9.43483E-05
 0.00000E+00
 0.00000E+00
-2.27801E-05
-4.08126E-05
-5.94076E-05
-7.46283E-05
-5.55118E-05
-5.14727E-05
 9.49026E-13
 5.14727E-05
 5.55118E-05
 7.46283E-05
 5.94076E-05
 4.08126E-05
 2.27801E-05
 0.00000E+00
 0.00000E+00
 5.01777E-05
 9.30268E-05
 1.15305E-04
 1.07788E-04
 7.49904E-05
 3.91258E-05
 6.93219E-13
-3.91258E-05
-7.49904E-05
-1.07788E-04
-1.15305E-04
-9.30268E-05
-5.01777E-05
 0.00000E+00
 0.00000E+00
 1.55310E-04
 2.81310E-04
 3.65503E-04
 3.67654E-04
 3.05330E-04
 1.69555E-04
 5.55915E-13
-1.69555E-04
-3.05330E-04
-3.67654E-04
-3.65503E-04
-2.81310E-04
-1.55310E-04
 0.00000E+00
 0.00000E+00
 3.30740E-04
 6.20330E-04
 8.02086E-04
 8.46267E-04
 7.00873E-04
 4.02069E-04
 7.54494E-13
-4.02069E-04
-7.00873E-04
-8.46267E-04
-8.02086E-04
-6.20330E-04
-3.30740E-04
 0.00000E+00
 0.00000E+00
 4.38761E-04
 8.07420E-04
 1.06442E-03
 1.10309E-03
 9.26194E-04
 5.18027E-04
 4.26831E-13
-5.18027E-04
-9.26194E-04
-1.10309E-03
-1.06442E-03
-8.07420E-04
-4.38762E-04
 0.00000E+00
 0.00000E+00
 2.13190E-04
 3.96602E-04
 4.99948E-04
 5.18733E-04
 4.20424E-04
 2.35845E-04
 1.43071E-13
-2.35845E-04
-4.20424E-04
-5.18733E-04
-4.99948E-04
-3.96602E-04
-2.13190E-04
 0.00000E+00
 0.00000E+00
 1.00053E-04
 1.80756E-04
 2.18409E-04
 2.07732E-04
 1.56587E-04
 8.11171E-05
 5.13600E-13
-8.11171E-05
-1.56587E-04
-2.07732E-04
-2.18409E-04
-1.80756E-04
-1.00053E-04
 0.00000E+00
 0.00000E+00
 3.08569E-05
 4.34136E-05
 3.66111E-05
 4.79293E-06
-1.69154E-05
-1.86562E-05
 8.79481E-13
 1.86562E-05
 1.69154E-05
-4.79293E-06
-3.66111E-05
-4.34136E-05
-3.08569E-05
 0.00000E+00
 0.00000E+00
-3.57538E-05
-7.00509E-05
-1.09798E-04
-1.28874E-04
-1.17752E-04
-6.92275E-05
 1.03514E-12
 6.92275E-05
 1.17752E-04
 1.28874E-04
 1.09798E-04
 7.00509E-05
 3.57538E-05
 0.00000E+00
 0.00000E+00
-9.87136E-05
-1.78009E-04
-2.18958E-04
-2.10345E-04
-1.65018E-04
-9.25054E-05
 1.05614E-12
 9.25054E-05
 1.65018E-04
 2.10345E-04
 2.18958E-04
 1.78009E-04
 9.87136E-05
 0.00000E+00
 0.00000E+00
-1.42898E-04
-2.63050E-04
-2.85057E-04
-2.46446E-04
-1.85250E-04
-1.01844E-04
 1.01202E-12
 1.01844E-04
 1.85250E-04
 2.46446E-04
 2.85057E-04
 2.63050E-04
 1.42898E-04
 0.00000E+00
 0.00000E+00
-1.64466E-04
-2.82180E-04
-3.10602E-04
-2.60175E-04
-1.92298E-04
-1.01540E-04
 9.88781E-13
 1.01540E-04
 1.92298E-04
 2.60175E-04
 3.10602E-04
 2.82180E-04
 1.64466E-04
 0.00000E+00
 0.00000E+00
-1.42898E-04
-2.63050E-04
-2.85057E-04
-2.46446E-04
-1.85250E-04
-1.01844E-04
 1.03282E-12
 1.01844E-04
 1.85250E-04
 2.46446E-04
 2.85057E-04
 2.63050E-04
 1.42898E-04
 0.00000E+00
 0.00000E+00
-9.87136E-05
-1.78009E-04
-2.18958E-04
-2.10345E-04
-1.65018E-04
-9.25054E-05
 1.11676E-12
 9.25054E-05
 1.65018E-04
 2.10345E-04
 2.18958E-04
 1.78009E-04
 9.87136E-05
 0.00000E+00
 0.00000E+00
-3.57538E-05
-7.00509E-05
-1.09798E-04
-1.28874E-04
-1.17752E-04
-6.92275E-05
 1.16205E-12
 6.92275E-05
 1.17752E-04
 1.28874E-04
 1.09798E-04
 7.00509E-05
 3.57538E-05
 0.00000E+00
 0.00000E+00
 3.08569E-05
 4.34136E-05
 3.66111E-05
 4.79294E-06
-1.69154E-05
-1.86562E-05
 1.11493E-12
 1.86562E-05
 1.69154E-05
-4.79293E-06
-3.66111E-05
-4.34136E-05
-3.08569E-05
 0.00000E+00
 0.00000E+00