# vtk DataFile Version 2.0
Output of NLACE
ASCII
DATASET UNSTRUCTURED_GRID
POINTS            8 FLOAT
 0.000000E+00  0.000000E+00  0.000000E+00
 1.000000E+01  0.000000E+00  0.000000E+00
 0.000000E+00  1.000000E+01  0.000000E+00
 1.000000E+01  1.000000E+01  0.000000E+00
 0.000000E+00  0.000000E+00 -1.000000E+01
 1.000000E+01  0.000000E+00 -1.000000E+01
 0.000000E+00  1.000000E+01 -1.000000E+01
 1.000000E+01  1.000000E+01 -1.000000E+01
CELLS            5          25
4    0    4    6    5
4    3    6    7    5
4    3    6    5    0
4    3    0    2    6
4    1    0    3    5
CELL_TYPES            5
10
10
10
10
10
POINT_DATA            8
 SCALARS measuredDisp11 float  1                   
LOOKUP_TABLE default
 0.00000E+00
 5.23435E-01
 0.00000E+00
 5.23435E-01
 0.00000E+00
 5.23435E-01
 0.00000E+00
 5.23435E-01
 SCALARS measuredDisp12 float  1                   
LOOKUP_TABLE default
 0.00000E+00
 0.00000E+00
 5.23435E-01
 5.23435E-01
 0.00000E+00
 0.00000E+00
 5.23435E-01
 5.23435E-01
 SCALARS measuredDisp13 float  1                   
LOOKUP_TABLE default
 0.00000E+00
 0.00000E+00
 0.00000E+00
 0.00000E+00
 9.70059E-01
 9.70059E-01
 9.70059E-01
 9.70059E-01
 SCALARS measuredDisp14 float  1                   
LOOKUP_TABLE default
 3.00998E-01
 3.00998E-01
 3.00998E-01
 3.00998E-01
 3.00998E-01
 3.00998E-01
 3.00998E-01
 3.00998E-01
 SCALARS predictedDisp11 float  1                  
LOOKUP_TABLE default
 0.00000E+00
 5.23435E-01
 0.00000E+00
 5.23435E-01
-1.86635E-07
 5.23435E-01
-1.98840E-07
 5.23435E-01
 SCALARS predictedDisp12 float  1                  
LOOKUP_TABLE default
 0.00000E+00
 0.00000E+00
 5.23435E-01
 5.23435E-01
-1.86635E-07
-1.98840E-07
 5.23435E-01
 5.23435E-01
 SCALARS predictedDisp13 float  1                  
LOOKUP_TABLE default
 0.00000E+00
 0.00000E+00
 0.00000E+00
 0.00000E+00
 9.70059E-01
 9.70059E-01
 9.70059E-01
 9.70058E-01
 SCALARS predictedDisp14 float  1                  
LOOKUP_TABLE default
 3.00998E-01
 3.00998E-01
 3.00998E-01
 3.00998E-01
 3.00998E-01
 3.00998E-01
 3.00998E-01
 3.00998E-01
 SCALARS dual11 float  1                           
LOOKUP_TABLE default
 0.00000E+00
-6.28047E-07
 0.00000E+00
-9.06221E-07
-1.51662E-06
-8.59721E-07
-1.62645E-06
-6.09529E-07
 SCALARS dual12 float  1                           
LOOKUP_TABLE default
 0.00000E+00
 0.00000E+00
-6.28047E-07
-9.06220E-07
-1.51662E-06
-1.62644E-06
-8.59718E-07
-6.09525E-07
 SCALARS dual13 float  1                           
LOOKUP_TABLE default
 0.00000E+00
 0.00000E+00
 0.00000E+00
 0.00000E+00
 6.11926E-11
 1.71726E-11
 1.96731E-11
-3.94021E-11
 SCALARS dual14 float  1                           
LOOKUP_TABLE default
-7.74843E-07
-7.82109E-07
-7.82109E-07
-7.58243E-07
-7.08844E-07
-7.15869E-07
-7.15869E-07
-6.85205E-07
 SCALARS NLP float  1                              
LOOKUP_TABLE default
 1.00000E+00
 1.00000E+00
 1.00000E+00
 1.00000E+00
 1.00000E+00
 1.00000E+00
 1.00000E+00
 1.00000E+00
 SCALARS SM float  1                               
LOOKUP_TABLE default
 3.00000E+00
 3.00000E+00
 3.00000E+00
 3.00000E+00
 3.00000E+00
 3.00000E+00
 3.00000E+00
 3.00000E+00
 SCALARS property3 float  1                        
LOOKUP_TABLE default
 0.00000E+00
 0.00000E+00
 0.00000E+00
 0.00000E+00
 0.00000E+00
 0.00000E+00
 0.00000E+00
 0.00000E+00
 SCALARS property4 float  1                        
LOOKUP_TABLE default
 0.00000E+00
 0.00000E+00
 0.00000E+00
 0.00000E+00
 0.00000E+00
 0.00000E+00
 0.00000E+00
 0.00000E+00
 SCALARS property5 float  1                        
LOOKUP_TABLE default
 0.00000E+00
 0.00000E+00
 0.00000E+00
 0.00000E+00
 1.00000E+00
 1.00000E+00
 1.00000E+00
 9.99999E-01
 SCALARS gradient1 float  1                        
LOOKUP_TABLE default
 0.00000E+00
 0.00000E+00
 0.00000E+00
 0.00000E+00
 0.00000E+00
 0.00000E+00
 0.00000E+00
 0.00000E+00
 SCALARS gradient2 float  1                        
LOOKUP_TABLE default
 0.00000E+00
 0.00000E+00
 0.00000E+00
 0.00000E+00
 0.00000E+00
 0.00000E+00
 0.00000E+00
 0.00000E+00
 SCALARS gradient3 float  1                        
LOOKUP_TABLE default
 0.00000E+00
 0.00000E+00
 0.00000E+00
 0.00000E+00
 0.00000E+00
 0.00000E+00
 0.00000E+00
 0.00000E+00
 SCALARS gradient4 float  1                        
LOOKUP_TABLE default
 0.00000E+00
 0.00000E+00
 0.00000E+00
 0.00000E+00
 0.00000E+00
 0.00000E+00
 0.00000E+00
 0.00000E+00
 SCALARS gradient5 float  1                        
LOOKUP_TABLE default
 0.00000E+00
 0.00000E+00
 0.00000E+00
 0.00000E+00
 0.00000E+00
 0.00000E+00
 0.00000E+00
 0.00000E+00
CELL_DATA           5
SCALARS elemDataMatch  float  1
LOOKUP_TABLE default
 2.12182E-12
 1.43205E-11
 8.06626E-12
 5.43515E-12
 5.43515E-12
SCALARS elemRegul  float  1
LOOKUP_TABLE default
 0.00000E+00
 0.00000E+00
 0.00000E+00
 0.00000E+00
 0.00000E+00
SCALARS l2grad2  float  1
LOOKUP_TABLE default
 0.00000E+00
 0.00000E+00
 0.00000E+00
 0.00000E+00
 0.00000E+00
