# vtk DataFile Version 2.0
OUTPUT FROM BUFEM
ASCII
DATASET UNSTRUCTURED_GRID
POINTS          609 FLOAT
 5.478261E+00 -2.317726E+01  0.000000E+00
 6.086957E+00 -2.317726E+01  0.000000E+00
 6.695652E+00 -2.317726E+01  0.000000E+00
 7.304348E+00 -2.317726E+01  0.000000E+00
 7.913043E+00 -2.317726E+01  0.000000E+00
 8.521739E+00 -2.317726E+01  0.000000E+00
 9.130435E+00 -2.317726E+01  0.000000E+00
 9.739130E+00 -2.317726E+01  0.000000E+00
 1.034783E+01 -2.317726E+01  0.000000E+00
 1.095652E+01 -2.317726E+01  0.000000E+00
 1.156522E+01 -2.317726E+01  0.000000E+00
 1.217391E+01 -2.317726E+01  0.000000E+00
 1.278261E+01 -2.317726E+01  0.000000E+00
 1.339130E+01 -2.317726E+01  0.000000E+00
 1.400000E+01 -2.317726E+01  0.000000E+00
 1.460870E+01 -2.317726E+01  0.000000E+00
 1.521739E+01 -2.317726E+01  0.000000E+00
 1.582609E+01 -2.317726E+01  0.000000E+00
 1.643478E+01 -2.317726E+01  0.000000E+00
 1.704348E+01 -2.317726E+01  0.000000E+00
 1.765217E+01 -2.317726E+01  0.000000E+00
 1.826087E+01 -2.317726E+01  0.000000E+00
 1.886957E+01 -2.317726E+01  0.000000E+00
 1.947826E+01 -2.317726E+01  0.000000E+00
 2.008696E+01 -2.317726E+01  0.000000E+00
 2.069565E+01 -2.317726E+01  0.000000E+00
 2.130435E+01 -2.317726E+01  0.000000E+00
 2.191304E+01 -2.317726E+01  0.000000E+00
 2.252174E+01 -2.317726E+01  0.000000E+00
 5.478261E+00 -2.394983E+01  0.000000E+00
 6.086957E+00 -2.394983E+01  0.000000E+00
 6.695652E+00 -2.394983E+01  0.000000E+00
 7.304348E+00 -2.394983E+01  0.000000E+00
 7.913043E+00 -2.394983E+01  0.000000E+00
 8.521739E+00 -2.394983E+01  0.000000E+00
 9.130435E+00 -2.394983E+01  0.000000E+00
 9.739130E+00 -2.394983E+01  0.000000E+00
 1.034783E+01 -2.394983E+01  0.000000E+00
 1.095652E+01 -2.394983E+01  0.000000E+00
 1.156522E+01 -2.394983E+01  0.000000E+00
 1.217391E+01 -2.394983E+01  0.000000E+00
 1.278261E+01 -2.394983E+01  0.000000E+00
 1.339130E+01 -2.394983E+01  0.000000E+00
 1.400000E+01 -2.394983E+01  0.000000E+00
 1.460870E+01 -2.394983E+01  0.000000E+00
 1.521739E+01 -2.394983E+01  0.000000E+00
 1.582609E+01 -2.394983E+01  0.000000E+00
 1.643478E+01 -2.394983E+01  0.000000E+00
 1.704348E+01 -2.394983E+01  0.000000E+00
 1.765217E+01 -2.394983E+01  0.000000E+00
 1.826087E+01 -2.394983E+01  0.000000E+00
 1.886957E+01 -2.394983E+01  0.000000E+00
 1.947826E+01 -2.394983E+01  0.000000E+00
 2.008696E+01 -2.394983E+01  0.000000E+00
 2.069565E+01 -2.394983E+01  0.000000E+00
 2.130435E+01 -2.394983E+01  0.000000E+00
 2.191304E+01 -2.394983E+01  0.000000E+00
 2.252174E+01 -2.394983E+01  0.000000E+00
 5.478261E+00 -2.472241E+01  0.000000E+00
 6.086957E+00 -2.472241E+01  0.000000E+00
 6.695652E+00 -2.472241E+01  0.000000E+00
 7.304348E+00 -2.472241E+01  0.000000E+00
 7.913043E+00 -2.472241E+01  0.000000E+00
 8.521739E+00 -2.472241E+01  0.000000E+00
 9.130435E+00 -2.472241E+01  0.000000E+00
 9.739130E+00 -2.472241E+01  0.000000E+00
 1.034783E+01 -2.472241E+01  0.000000E+00
 1.095652E+01 -2.472241E+01  0.000000E+00
 1.156522E+01 -2.472241E+01  0.000000E+00
 1.217391E+01 -2.472241E+01  0.000000E+00
 1.278261E+01 -2.472241E+01  0.000000E+00
 1.339130E+01 -2.472241E+01  0.000000E+00
 1.400000E+01 -2.472241E+01  0.000000E+00
 1.460870E+01 -2.472241E+01  0.000000E+00
 1.521739E+01 -2.472241E+01  0.000000E+00
 1.582609E+01 -2.472241E+01  0.000000E+00
 1.643478E+01 -2.472241E+01  0.000000E+00
 1.704348E+01 -2.472241E+01  0.000000E+00
 1.765217E+01 -2.472241E+01  0.000000E+00
 1.826087E+01 -2.472241E+01  0.000000E+00
 1.886957E+01 -2.472241E+01  0.000000E+00
 1.947826E+01 -2.472241E+01  0.000000E+00
 2.008696E+01 -2.472241E+01  0.000000E+00
 2.069565E+01 -2.472241E+01  0.000000E+00
 2.130435E+01 -2.472241E+01  0.000000E+00
 2.191304E+01 -2.472241E+01  0.000000E+00
 2.252174E+01 -2.472241E+01  0.000000E+00
 5.478261E+00 -2.549498E+01  0.000000E+00
 6.086957E+00 -2.549498E+01  0.000000E+00
 6.695652E+00 -2.549498E+01  0.000000E+00
 7.304348E+00 -2.549498E+01  0.000000E+00
 7.913043E+00 -2.549498E+01  0.000000E+00
 8.521739E+00 -2.549498E+01  0.000000E+00
 9.130435E+00 -2.549498E+01  0.000000E+00
 9.739130E+00 -2.549498E+01  0.000000E+00
 1.034783E+01 -2.549498E+01  0.000000E+00
 1.095652E+01 -2.549498E+01  0.000000E+00
 1.156522E+01 -2.549498E+01  0.000000E+00
 1.217391E+01 -2.549498E+01  0.000000E+00
 1.278261E+01 -2.549498E+01  0.000000E+00
 1.339130E+01 -2.549498E+01  0.000000E+00
 1.400000E+01 -2.549498E+01  0.000000E+00
 1.460870E+01 -2.549498E+01  0.000000E+00
 1.521739E+01 -2.549498E+01  0.000000E+00
 1.582609E+01 -2.549498E+01  0.000000E+00
 1.643478E+01 -2.549498E+01  0.000000E+00
 1.704348E+01 -2.549498E+01  0.000000E+00
 1.765217E+01 -2.549498E+01  0.000000E+00
 1.826087E+01 -2.549498E+01  0.000000E+00
 1.886957E+01 -2.549498E+01  0.000000E+00
 1.947826E+01 -2.549498E+01  0.000000E+00
 2.008696E+01 -2.549498E+01  0.000000E+00
 2.069565E+01 -2.549498E+01  0.000000E+00
 2.130435E+01 -2.549498E+01  0.000000E+00
 2.191304E+01 -2.549498E+01  0.000000E+00
 2.252174E+01 -2.549498E+01  0.000000E+00
 5.478261E+00 -2.626756E+01  0.000000E+00
 6.086957E+00 -2.626756E+01  0.000000E+00
 6.695652E+00 -2.626756E+01  0.000000E+00
 7.304348E+00 -2.626756E+01  0.000000E+00
 7.913043E+00 -2.626756E+01  0.000000E+00
 8.521739E+00 -2.626756E+01  0.000000E+00
 9.130435E+00 -2.626756E+01  0.000000E+00
 9.739130E+00 -2.626756E+01  0.000000E+00
 1.034783E+01 -2.626756E+01  0.000000E+00
 1.095652E+01 -2.626756E+01  0.000000E+00
 1.156522E+01 -2.626756E+01  0.000000E+00
 1.217391E+01 -2.626756E+01  0.000000E+00
 1.278261E+01 -2.626756E+01  0.000000E+00
 1.339130E+01 -2.626756E+01  0.000000E+00
 1.400000E+01 -2.626756E+01  0.000000E+00
 1.460870E+01 -2.626756E+01  0.000000E+00
 1.521739E+01 -2.626756E+01  0.000000E+00
 1.582609E+01 -2.626756E+01  0.000000E+00
 1.643478E+01 -2.626756E+01  0.000000E+00
 1.704348E+01 -2.626756E+01  0.000000E+00
 1.765217E+01 -2.626756E+01  0.000000E+00
 1.826087E+01 -2.626756E+01  0.000000E+00
 1.886957E+01 -2.626756E+01  0.000000E+00
 1.947826E+01 -2.626756E+01  0.000000E+00
 2.008696E+01 -2.626756E+01  0.000000E+00
 2.069565E+01 -2.626756E+01  0.000000E+00
 2.130435E+01 -2.626756E+01  0.000000E+00
 2.191304E+01 -2.626756E+01  0.000000E+00
 2.252174E+01 -2.626756E+01  0.000000E+00
 5.478261E+00 -2.704013E+01  0.000000E+00
 6.086957E+00 -2.704013E+01  0.000000E+00
 6.695652E+00 -2.704013E+01  0.000000E+00
 7.304348E+00 -2.704013E+01  0.000000E+00
 7.913043E+00 -2.704013E+01  0.000000E+00
 8.521739E+00 -2.704013E+01  0.000000E+00
 9.130435E+00 -2.704013E+01  0.000000E+00
 9.739130E+00 -2.704013E+01  0.000000E+00
 1.034783E+01 -2.704013E+01  0.000000E+00
 1.095652E+01 -2.704013E+01  0.000000E+00
 1.156522E+01 -2.704013E+01  0.000000E+00
 1.217391E+01 -2.704013E+01  0.000000E+00
 1.278261E+01 -2.704013E+01  0.000000E+00
 1.339130E+01 -2.704013E+01  0.000000E+00
 1.400000E+01 -2.704013E+01  0.000000E+00
 1.460870E+01 -2.704013E+01  0.000000E+00
 1.521739E+01 -2.704013E+01  0.000000E+00
 1.582609E+01 -2.704013E+01  0.000000E+00
 1.643478E+01 -2.704013E+01  0.000000E+00
 1.704348E+01 -2.704013E+01  0.000000E+00
 1.765217E+01 -2.704013E+01  0.000000E+00
 1.826087E+01 -2.704013E+01  0.000000E+00
 1.886957E+01 -2.704013E+01  0.000000E+00
 1.947826E+01 -2.704013E+01  0.000000E+00
 2.008696E+01 -2.704013E+01  0.000000E+00
 2.069565E+01 -2.704013E+01  0.000000E+00
 2.130435E+01 -2.704013E+01  0.000000E+00
 2.191304E+01 -2.704013E+01  0.000000E+00
 2.252174E+01 -2.704013E+01  0.000000E+00
 5.478261E+00 -2.781271E+01  0.000000E+00
 6.086957E+00 -2.781271E+01  0.000000E+00
 6.695652E+00 -2.781271E+01  0.000000E+00
 7.304348E+00 -2.781271E+01  0.000000E+00
 7.913043E+00 -2.781271E+01  0.000000E+00
 8.521739E+00 -2.781271E+01  0.000000E+00
 9.130435E+00 -2.781271E+01  0.000000E+00
 9.739130E+00 -2.781271E+01  0.000000E+00
 1.034783E+01 -2.781271E+01  0.000000E+00
 1.095652E+01 -2.781271E+01  0.000000E+00
 1.156522E+01 -2.781271E+01  0.000000E+00
 1.217391E+01 -2.781271E+01  0.000000E+00
 1.278261E+01 -2.781271E+01  0.000000E+00
 1.339130E+01 -2.781271E+01  0.000000E+00
 1.400000E+01 -2.781271E+01  0.000000E+00
 1.460870E+01 -2.781271E+01  0.000000E+00
 1.521739E+01 -2.781271E+01  0.000000E+00
 1.582609E+01 -2.781271E+01  0.000000E+00
 1.643478E+01 -2.781271E+01  0.000000E+00
 1.704348E+01 -2.781271E+01  0.000000E+00
 1.765217E+01 -2.781271E+01  0.000000E+00
 1.826087E+01 -2.781271E+01  0.000000E+00
 1.886957E+01 -2.781271E+01  0.000000E+00
 1.947826E+01 -2.781271E+01  0.000000E+00
 2.008696E+01 -2.781271E+01  0.000000E+00
 2.069565E+01 -2.781271E+01  0.000000E+00
 2.130435E+01 -2.781271E+01  0.000000E+00
 2.191304E+01 -2.781271E+01  0.000000E+00
 2.252174E+01 -2.781271E+01  0.000000E+00
 5.478261E+00 -2.858528E+01  0.000000E+00
 6.086957E+00 -2.858528E+01  0.000000E+00
 6.695652E+00 -2.858528E+01  0.000000E+00
 7.304348E+00 -2.858528E+01  0.000000E+00
 7.913043E+00 -2.858528E+01  0.000000E+00
 8.521739E+00 -2.858528E+01  0.000000E+00
 9.130435E+00 -2.858528E+01  0.000000E+00
 9.739130E+00 -2.858528E+01  0.000000E+00
 1.034783E+01 -2.858528E+01  0.000000E+00
 1.095652E+01 -2.858528E+01  0.000000E+00
 1.156522E+01 -2.858528E+01  0.000000E+00
 1.217391E+01 -2.858528E+01  0.000000E+00
 1.278261E+01 -2.858528E+01  0.000000E+00
 1.339130E+01 -2.858528E+01  0.000000E+00
 1.400000E+01 -2.858528E+01  0.000000E+00
 1.460870E+01 -2.858528E+01  0.000000E+00
 1.521739E+01 -2.858528E+01  0.000000E+00
 1.582609E+01 -2.858528E+01  0.000000E+00
 1.643478E+01 -2.858528E+01  0.000000E+00
 1.704348E+01 -2.858528E+01  0.000000E+00
 1.765217E+01 -2.858528E+01  0.000000E+00
 1.826087E+01 -2.858528E+01  0.000000E+00
 1.886957E+01 -2.858528E+01  0.000000E+00
 1.947826E+01 -2.858528E+01  0.000000E+00
 2.008696E+01 -2.858528E+01  0.000000E+00
 2.069565E+01 -2.858528E+01  0.000000E+00
 2.130435E+01 -2.858528E+01  0.000000E+00
 2.191304E+01 -2.858528E+01  0.000000E+00
 2.252174E+01 -2.858528E+01  0.000000E+00
 5.478261E+00 -2.935786E+01  0.000000E+00
 6.086957E+00 -2.935786E+01  0.000000E+00
 6.695652E+00 -2.935786E+01  0.000000E+00
[...]
POINT_DATA          609
 SCALARS measuredDisp11 float  1                   
LOOKUP_TABLE default
-1.17573E+00
-1.06273E+00
-1.06558E+00
-1.06412E+00
-9.80701E-01
-8.98111E-01
-8.28523E-01
-7.12404E-01
-6.65669E-01
-6.08635E-01
-5.86988E-01
-5.41744E-01
-4.23065E-01
-3.35944E-01
-2.52968E-01
-1.82491E-01
-1.56573E-01
-6.57430E-02
-5.48640E-02
-4.34840E-02
 3.82500E-02
 1.66169E-01
 2.37655E-01
 2.43615E-01
 3.00174E-01
 4.26240E-01
 4.53493E-01
 4.75162E-01
 5.93486E-01
-1.33172E+00
-1.17244E+00
-9.43090E-01
-9.77453E-01
-9.35633E-01
-8.88136E-01
-8.83483E-01
-7.77627E-01
-5.81186E-01
-6.29939E-01
-6.30048E-01
-4.97878E-01
-3.37378E-01
-3.00550E-01
-3.02128E-01
-1.69142E-01
-4.44870E-02
-3.13570E-02
-6.65740E-02
-8.57900E-03
 8.84500E-02
 1.83259E-01
 2.33389E-01
 2.10949E-01
 2.78111E-01
 2.68248E-01
 4.27498E-01
 5.18486E-01
 6.00319E-01
-1.28196E+00
-1.24184E+00
-1.08936E+00
-9.81594E-01
-8.96964E-01
-8.54383E-01
-8.88805E-01
-6.14150E-01
-5.93815E-01
-5.95053E-01
-5.69325E-01
-4.88841E-01
-3.52197E-01
-2.82428E-01
-2.19732E-01
-1.57606E-01
-1.69351E-01
-1.37047E-01
-4.87380E-02
-3.68000E-04
 7.12770E-02
 9.19350E-02
 1.44626E-01
 2.00871E-01
 2.84773E-01
 4.47272E-01
 5.49016E-01
 4.97084E-01
 5.79154E-01
-1.22988E+00
-1.18409E+00
-1.07284E+00
-1.00831E+00
-9.79073E-01
-8.84595E-01
-7.73815E-01
-7.22805E-01
-6.90777E-01
-5.47280E-01
-6.07786E-01
-5.57493E-01
-4.63097E-01
-3.09176E-01
-2.45822E-01
-1.53176E-01
-1.23561E-01
-1.08510E-01
-8.25440E-02
-2.39930E-02
 4.56750E-02
 8.57380E-02
 1.06022E-01
 1.83395E-01
 3.40367E-01
 4.40214E-01
 4.57891E-01
 5.11168E-01
 6.21763E-01
-1.16589E+00
-1.14349E+00
-1.10276E+00
-1.04178E+00
-1.03096E+00
-7.98151E-01
-7.51175E-01
-6.04465E-01
-5.51800E-01
-6.50312E-01
-7.09771E-01
-6.28162E-01
-2.54542E-01
-3.02107E-01
-2.37559E-01
-1.41532E-01
-1.16696E-01
-1.19791E-01
-1.13325E-01
-3.17160E-02
 9.36410E-02
 1.24550E-01
 1.55943E-01
 2.22272E-01
 3.81085E-01
 4.36082E-01
 4.99162E-01
 6.03255E-01
 6.82997E-01
-1.29723E+00
-1.12808E+00
-1.08725E+00
-1.04733E+00
-9.04353E-01
-8.03586E-01
-6.92742E-01
-7.73803E-01
-7.84961E-01
-7.61211E-01
-6.83479E-01
-5.38402E-01
-4.01326E-01
-4.42065E-01
-2.97743E-01
-2.85923E-01
 1.07790E-02
 1.43156E-01
 7.53280E-02
-1.02801E-01
-8.61400E-03
 1.26870E-01
 2.16737E-01
 2.99443E-01
 3.62218E-01
 5.66099E-01
 6.23212E-01
 6.65495E-01
 6.88602E-01
-1.20165E+00
-1.14092E+00
-1.09334E+00
-1.05372E+00
-9.54528E-01
-7.67377E-01
-7.67617E-01
-7.26724E-01
-6.97664E-01
-7.19681E-01
-7.01761E-01
-6.05087E-01
-4.66972E-01
-3.83083E-01
-2.77788E-01
-2.55253E-01
-1.15216E-01
 9.57570E-02
 1.60544E-01
 1.80922E-01
 1.79750E-01
 1.09450E-01
 2.64709E-01
 2.30992E-01
 2.66247E-01
 4.02986E-01
 6.36176E-01
 6.34150E-01
 6.34461E-01
-1.18962E+00
-1.22594E+00
-1.24801E+00
-1.03878E+00
-1.04993E+00
-7.24583E-01
-7.33970E-01
-6.62327E-01
-6.88187E-01
-7.28167E-01
-6.27604E-01
-5.55384E-01
-3.00636E-01
-1.80443E-01
-1.05069E-01
-9.09550E-02
-2.76930E-02
-1.01750E-02
 8.88650E-02
 2.74136E-01
 3.46059E-01
 3.63280E-01
 2.07963E-01
 1.64235E-01
 2.54268E-01
 5.83686E-01
 5.21800E-01
 5.67473E-01
 6.46589E-01
-1.21804E+00
-1.08560E+00
-9.45292E-01
-9.67013E-01
-9.08566E-01
-6.67134E-01
-7.25377E-01
-7.19672E-01
-7.05222E-01
-7.34153E-01
-6.63273E-01
-4.96235E-01
-3.34503E-01
-1.12829E-01
-1.20070E-01
-2.37778E-01
-9.61430E-02
-1.06944E-01
 1.69940E-02
 1.70666E-01
 2.85633E-01
 4.44433E-01
 3.56510E-01
 2.88703E-01
 3.43013E-01
 4.00358E-01
 5.03272E-01
 6.10356E-01
 6.51725E-01
-1.37186E+00
-1.03896E+00
-9.10315E-01
-8.40537E-01
-9.96464E-01
-9.72459E-01
-7.88429E-01
-7.38475E-01
-6.65814E-01
-6.18363E-01
-6.50388E-01
-5.87558E-01
-3.90548E-01
-3.49253E-01
-3.80762E-01
-2.36577E-01
-7.44600E-03
-2.56930E-02
 6.70520E-02
 8.58220E-02
 9.97150E-02
 3.74657E-01
 4.33476E-01
 5.00545E-01
 4.23584E-01
 3.29364E-01
 6.24515E-01
 6.85991E-01
 6.67726E-01
-1.21406E+00
-1.15828E+00
-1.11420E+00
-1.23021E+00
-1.05243E+00
-1.00802E+00
-9.46440E-01
-9.21087E-01
-7.69067E-01
-6.26745E-01
-4.35338E-01
-3.63274E-01
-4.55913E-01
-4.14250E-01
-3.35936E-01
-2.23434E-01
-9.14750E-02
-2.23860E-02
 5.83700E-02
 2.84830E-02
 1.32554E-01
 3.01581E-01
 6.50612E-01
 6.38817E-01
 5.69265E-01
 3.87030E-01
 3.60906E-01
 5.52299E-01
 9.28688E-01
-1.26099E+00
-1.10008E+00
-1.03141E+00
-1.03620E+00
-1.01648E+00
-1.07643E+00
-8.89313E-01
-9.34705E-01
-8.69444E-01
-7.65140E-01
-4.52945E-01
-4.58989E-01
-4.58727E-01
-4.36543E-01
-4.57626E-01
-6.73681E-01
-2.26999E-01
-1.90450E-01
-1.80579E-01
 9.14230E-02
 2.27069E-01
 2.27909E-01
 3.53082E-01
 5.53022E-01
 4.25090E-01
 3.69453E-01
 4.85940E-01
 7.20905E-01
 7.66032E-01
-1.13966E+00
-9.59565E-01
-9.23429E-01
-9.24983E-01
-1.01147E+00
-9.85969E-01
-1.08648E+00
-4.89397E-01
-1.46104E-01
-2.75102E-01
-3.61449E-01
-3.48059E-01
-2.47292E-01
-2.65768E-01
-8.88640E-02
 3.48950E-02
-1.66379E-01
-2.68894E-01
-2.70848E-01
-4.61300E-02
 2.15968E-01
 1.72606E-01
 1.28388E-01
 2.80439E-01
 3.66406E-01
 5.95070E-01
 5.96619E-01
 6.48984E-01
 5.91510E-01
-1.01418E+00
-1.10997E+00
-1.02616E+00
-1.05513E+00
-7.83605E-01
-9.12392E-01
-9.92898E-01
-4.91080E-01
-2.50144E-01
-3.35416E-01
-3.31853E-01
-2.59839E-01
-1.18194E-01
 1.25325E-01
 9.35410E-02
 4.74600E-02
-4.87670E-02
-1.21057E-01
-6.84560E-02
 9.31280E-02
 1.01722E-01
 3.70660E-02
 3.38307E-01
 5.13051E-01
 5.38195E-01
 5.79163E-01
 6.16470E-01
 5.91440E-01
 6.12284E-01
-1.01827E+00
-9.37519E-01
-1.03724E+00
-1.12543E+00
-9.66327E-01
-1.04017E+00
-9.12161E-01
-3.95335E-01
-3.82075E-01
-3.28924E-01
-3.31180E-01
-3.74752E-01
-4.96027E-01
-4.96737E-01
-3.30002E-01
-2.60554E-01
-6.12030E-02
-1.53636E-01
-2.12599E-01
 8.06940E-02
 2.22840E-02
-1.68892E-01
-4.89300E-02
 6.69508E-01
 5.12751E-01
 5.46097E-01
 5.63538E-01
 5.58818E-01
 6.73375E-01
-1.56054E+00
-1.70574E+00
-1.41314E+00
-1.06328E+00
-1.02077E+00
-1.08744E+00
-1.09922E+00
-3.35445E-01
-3.55639E-01
-3.55372E-01
-4.16108E-01
-5.41430E-01
-2.96057E-01
-1.95662E-01
-2.63563E-01
-3.02690E-01
-2.72464E-01
-8.86850E-02
 6.03230E-02
-4.82230E-02
 3.20303E-01
 7.23928E-01
 5.04747E-01
 5.14595E-01
 4.53426E-01
 2.42349E-01
 4.54030E-01
 5.88517E-01
 7.05830E-01
-8.61735E-01
-6.51800E-01
-8.12356E-01
-9.17064E-01
-8.85769E-01
-5.14661E-01
-6.43934E-01
-6.30741E-01
-2.98913E-01
-3.03140E-01
-5.03282E-01
-2.80799E-01
-8.13040E-02
-1.26025E-01
-2.10553E-01
-3.37004E-01
-3.12577E-01
-3.25907E-01
 4.76200E-03
-8.94460E-02
 2.40471E-01
 3.18375E-01
 4.02994E-01
 5.88710E-01
 9.81121E-01
 1.02726E+00
 1.11006E+00
 1.33764E+00
 1.58529E+00
-8.13258E-01
-8.12521E-01
-9.83899E-01
-7.95609E-01
-7.83528E-01
-5.82895E-01
-5.87866E-01
-7.47449E-01
-9.81935E-01
-7.79017E-01
-2.07360E-01
-2.11634E-01
-9.74000E-02
-7.62830E-02
 1.10760E-02
-1.02510E-01
-2.56328E-01
-3.36043E-01
 2.55700E-03
-2.10229E-01
-4.06012E-01
 4.12719E-01
 6.74470E-01
 6.97844E-01
 5.30601E-01
 5.85032E-01
 6.70801E-01
 6.87709E-01
 7.32365E-01
-1.21597E+00
-1.23145E+00
-1.25175E+00
-7.26623E-01
-6.70945E-01
-8.86474E-01
-7.96051E-01
-8.58954E-01
-7.98731E-01
-5.46872E-01
-7.13226E-01
-3.81444E-01
-7.55379E-01
 1.39950E-01
 2.43630E-02
-1.48911E-01
-2.30233E-01
-1.63232E-01
 3.34759E-01
 2.38866E-01
 5.32346E-01
 3.86093E-01
 2.29349E-01
 3.90805E-01
 1.15236E+00
 9.67598E-01
 5.45330E-01
 5.86430E-01
 9.37724E-01
-1.01267E+00
-7.53555E-01
-7.51413E-01
-8.29599E-01
-6.62156E-01
-6.58446E-01
-8.15796E-01
-8.62995E-01
-7.83044E-01
-5.35624E-01
-4.86178E-01
-6.78706E-01
-8.23717E-01
-7.77922E-01
-1.04520E+00
 3.62562E-01
 2.61228E-01
 3.33386E-01
 2.60353E-01
 1.27248E-01
 1.98889E-01
 2.95517E-01
 3.26378E-01
 3.84587E-01
 1.05535E-01
-3.28060E-02
 6.53495E-01
 5.23440E-01
 9.90463E-01
-1.20466E+00
-9.60648E-01
-8.35871E-01
-9.91982E-01
-1.13012E+00
-5.43015E-01
-5.94963E-01
-6.67041E-01
-7.10106E-01
-6.38077E-01
-6.13469E-01
-7.05929E-01
-5.51348E-01
 2.96143E-01
 2.27849E-01
 1.21948E-01
 9.86280E-02
 1.94573E-01
 1.47537E-01
 1.11297E-01
 3.36346E-01
 3.23311E-01
 3.94635E-01
 5.31515E-01
 4.35638E-01
 4.61852E-01
 4.22210E-01
 4.21219E-01
 5.53955E-01
 SCALARS measuredDisp12 float  1                   
LOOKUP_TABLE default
 4.99045E+00
 5.05458E+00
 5.05959E+00
 5.01252E+00
 5.05522E+00
 5.07444E+00
 5.07883E+00
 5.12513E+00
 5.11859E+00
 5.09658E+00
 5.15771E+00
 5.16729E+00
 5.19494E+00
 5.20267E+00
 5.20715E+00
 5.23832E+00
 5.23500E+00
 5.23741E+00
 5.21110E+00
 5.24333E+00
 5.26671E+00
 5.25581E+00
 5.26761E+00
 5.26930E+00
 5.27383E+00
 5.30612E+00
 5.32182E+00
 5.30746E+00
 5.33909E+00
 5.14954E+00
 5.15563E+00
 5.16592E+00
 5.18855E+00
 5.19460E+00
 5.19294E+00
 5.21078E+00
 5.20762E+00
 5.24395E+00
 5.25903E+00
 5.26584E+00
 5.26746E+00
 5.31690E+00
 5.34658E+00
 5.35408E+00
 5.31310E+00
 5.35219E+00
 5.37009E+00
 5.36797E+00
 5.38081E+00
 5.37727E+00
 5.42781E+00
 5.42246E+00
 5.42448E+00
 5.46581E+00
 5.47988E+00
 5.43242E+00
 5.45206E+00
 5.46918E+00
 5.28188E+00
 5.28003E+00
 5.32041E+00
 5.33640E+00
 5.33916E+00
 5.35399E+00
 5.37753E+00
 5.36738E+00
 5.39956E+00
 5.42950E+00
 5.40404E+00
 5.44308E+00
 5.44626E+00
 5.48820E+00
 5.50681E+00
 5.52643E+00
 5.53980E+00
 5.53764E+00
 5.57118E+00
 5.57008E+00
 5.56818E+00
 5.54694E+00
 5.57852E+00
 5.58433E+00
 5.57543E+00
 5.54609E+00
 5.58205E+00
 5.59801E+00
 5.58948E+00
 5.44396E+00
 5.47786E+00
 5.47651E+00
 5.49399E+00
 5.50866E+00
 5.49754E+00
 5.51674E+00
 5.53428E+00
 5.54628E+00
 5.56637E+00
 5.60307E+00
 5.60056E+00
 5.61448E+00
 5.63347E+00
 5.65240E+00
 5.66436E+00
 5.67915E+00
 5.69524E+00
 5.71238E+00
 5.71924E+00
 5.70006E+00
 5.69881E+00
 5.69611E+00
 5.70365E+00
 5.72178E+00
 5.73486E+00
 5.75259E+00
 5.76419E+00
 5.76532E+00
 5.59749E+00
 5.58359E+00
 5.60383E+00
 5.61360E+00
 5.62706E+00
 5.66547E+00
 5.66318E+00
 5.66967E+00
 5.73370E+00
 5.75704E+00
 5.77845E+00
 5.75142E+00
 5.77083E+00
 5.77378E+00
 5.77876E+00
 5.80049E+00
 5.81200E+00
 5.82968E+00
 5.82240E+00
 5.83257E+00
 5.85068E+00
 5.86756E+00
 5.85611E+00
 5.84608E+00
 5.85278E+00
 5.87359E+00
 5.88533E+00
 5.87673E+00
 5.89617E+00
 5.73661E+00
 5.77936E+00
 5.79061E+00
 5.80122E+00
 5.80701E+00
 5.79558E+00
 5.82817E+00
 5.82783E+00
 5.84292E+00
 5.86198E+00
 5.87773E+00
 5.90549E+00
 5.96012E+00
 5.98257E+00
 5.99999E+00
 6.01052E+00
 6.05229E+00
 6.06182E+00
 6.02682E+00
 6.01961E+00
 5.99965E+00
 5.99872E+00
 5.99464E+00
 6.00902E+00
 6.00361E+00
 6.03690E+00
 6.03937E+00
 6.06782E+00
 6.08469E+00
 5.88439E+00
 5.88328E+00
 5.92217E+00
 5.91988E+00
 5.93952E+00
 5.98745E+00
 5.99647E+00
 5.97168E+00
 6.02942E+00
 6.09276E+00
 6.08336E+00
 6.05797E+00
 6.05434E+00
 6.06984E+00
 6.03671E+00
 6.05128E+00
 6.09327E+00
 6.11272E+00
 6.17368E+00
 6.19837E+00
 6.17457E+00
 6.14242E+00
 6.12731E+00
 6.14105E+00
 6.17495E+00
 6.16740E+00
 6.14516E+00
 6.17882E+00
 6.20428E+00
 6.04410E+00
 6.05083E+00
 6.02292E+00
 6.05146E+00
 6.06862E+00
 6.06158E+00
 6.08858E+00
 6.13303E+00
 6.18213E+00
 6.19183E+00
 6.17183E+00
 6.17842E+00
 6.19978E+00
 6.20004E+00
 6.21790E+00
 6.22156E+00
 6.24439E+00
 6.24568E+00
 6.25674E+00
 6.27726E+00
 6.31391E+00
 6.33695E+00
 6.29864E+00
 6.26753E+00
 6.29305E+00
 6.33796E+00
 6.34068E+00
 6.32048E+00
 6.29733E+00
 6.22395E+00
 6.22255E+00
 6.21526E+00
 6.22189E+00
 6.23522E+00
 6.24648E+00
 6.28116E+00
 6.29660E+00
 6.31185E+00
 6.31494E+00
 6.35349E+00
 6.35307E+00
 6.33804E+00
 6.35915E+00
 6.36903E+00
 6.38529E+00
 6.39122E+00
 6.38597E+00
 6.38605E+00
 6.39874E+00
 6.40951E+00
 6.48421E+00
 6.46106E+00
 6.46499E+00
 6.44399E+00
 6.44074E+00
 6.42546E+00
 6.46884E+00
 6.48514E+00
 6.28438E+00
 6.35103E+00
 6.35642E+00
 6.37786E+00
 6.38938E+00
 6.39172E+00
 6.38399E+00
 6.45122E+00
 6.43786E+00
 6.46095E+00
 6.44475E+00
 6.45652E+00
 6.48770E+00
 6.47527E+00
 6.47875E+00
 6.51330E+00
 6.49986E+00
 6.52455E+00
 6.53510E+00
 6.53323E+00
 6.54809E+00
 6.57465E+00
 6.60792E+00
 6.62041E+00
 6.57841E+00
 6.57656E+00
 6.61388E+00
 6.63312E+00
 6.64233E+00
 6.49676E+00
 6.48812E+00
 6.51683E+00
 6.52648E+00
 6.56175E+00
 6.54759E+00
 6.57470E+00
 6.59344E+00
 6.58153E+00
 6.56853E+00
 6.60465E+00
 6.61171E+00
 6.61109E+00
 6.61261E+00
 6.62330E+00
 6.61462E+00
 6.63100E+00
 6.67359E+00
 6.71025E+00
 6.69540E+00
 6.68353E+00
 6.69596E+00
 6.73412E+00
 6.74769E+00
 6.76839E+00
 6.77964E+00
 6.76925E+00
 6.79191E+00
 6.79067E+00
 6.64138E+00
 6.64525E+00
 6.65937E+00
 6.65025E+00
 6.60712E+00
 6.61507E+00
 6.72236E+00
 6.73799E+00
 6.72709E+00
 6.72256E+00
 6.73784E+00
 6.74089E+00
 6.77879E+00
 6.80039E+00
 6.80538E+00
 6.79545E+00
 6.81143E+00
 6.80354E+00
 6.80790E+00
 6.83952E+00
 6.85462E+00
 6.87711E+00
 6.87775E+00
 6.87061E+00
 6.88331E+00
 6.87738E+00
 6.86843E+00
 6.90497E+00
 6.92149E+00
 6.78702E+00
 6.78090E+00
 6.81368E+00
 6.87094E+00
 6.86707E+00
 6.85866E+00
 6.86470E+00
 6.84623E+00
 6.86352E+00
 6.88170E+00
 6.91937E+00
 6.91943E+00
 6.93548E+00
 6.93904E+00
 6.93892E+00
 6.96837E+00
 6.97271E+00
 6.98072E+00
 7.00638E+00
 6.98779E+00
 6.96089E+00
 6.97000E+00
 6.96353E+00
 6.99573E+00
 7.01427E+00
 7.08791E+00
 7.09519E+00
 7.07221E+00
 7.06746E+00
 6.94746E+00
 6.95394E+00
 6.94577E+00
 6.96610E+00
 6.99937E+00
 7.01732E+00
 7.01143E+00
 6.99470E+00
 7.01988E+00
 7.03787E+00
 7.05840E+00
 7.09759E+00
 7.11551E+00
 7.12000E+00
 7.13568E+00
 7.10563E+00
 7.09987E+00
 7.10672E+00
 7.08521E+00
 7.11133E+00
 7.12195E+00
 7.12746E+00
 7.14597E+00
 7.15734E+00
 7.15590E+00
 7.15868E+00
 7.18459E+00
 7.23448E+00
 7.22379E+00
 7.13101E+00
 7.12548E+00
 7.15034E+00
 7.12094E+00
 7.12927E+00
 7.11559E+00
 7.08371E+00
 7.09889E+00
 7.10130E+00
 7.14870E+00
 7.15341E+00
 7.17167E+00
 7.20070E+00
 7.19604E+00
 7.22198E+00
 7.23755E+00
 7.25918E+00
 7.26437E+00
 7.26970E+00
 7.26298E+00
 7.27326E+00
 7.27062E+00
 7.26798E+00
 7.29112E+00
 7.32265E+00
 7.34516E+00
 7.35712E+00
 7.35279E+00
 7.35925E+00
 7.24578E+00
 7.24248E+00
 7.26340E+00
 7.28323E+00
 7.27756E+00
 7.26356E+00
 7.24918E+00
 7.23557E+00
 7.25527E+00
 7.26786E+00
 7.31049E+00
 7.33505E+00
 7.35245E+00
 7.37559E+00
 7.36941E+00
 7.36171E+00
 7.36400E+00
 7.38081E+00
 7.39695E+00
 7.41437E+00
 7.40490E+00
 7.38245E+00
 7.36137E+00
 7.46117E+00
 7.50575E+00
 7.50803E+00
 7.48530E+00
 7.52602E+00
 7.52139E+00
 7.40305E+00
 7.42464E+00
 7.42853E+00
 7.43259E+00
 7.43762E+00
 7.47236E+00
 7.46532E+00
 7.39413E+00
 7.43317E+00
 7.44163E+00
 7.44079E+00
 7.49545E+00
 7.50823E+00
 7.52052E+00
 7.54720E+00
 7.54011E+00
 7.52964E+00
 7.53896E+00
 7.52792E+00
 7.51192E+00
 7.52816E+00
 7.55682E+00
 7.60567E+00
 7.62396E+00
 7.64474E+00
 7.65449E+00
 7.66722E+00
 7.67954E+00
 7.69587E+00
 7.49989E+00
 7.49432E+00
 7.48573E+00
 7.52593E+00
 7.52305E+00
 7.54015E+00
 7.57429E+00
 7.58478E+00
 7.56783E+00
 7.51985E+00
 7.56829E+00
 7.57266E+00
 7.58914E+00
 7.60280E+00
 7.61960E+00
 7.64960E+00
 7.67103E+00
 7.67900E+00
 7.65785E+00
 7.64369E+00
 7.64022E+00
 7.73591E+00
 7.76284E+00
 7.76833E+00
 7.75698E+00
 7.75667E+00
 7.76272E+00
 7.79259E+00
 7.79943E+00
 7.66447E+00
 7.68739E+00
 7.71014E+00
 7.73054E+00
 7.72041E+00
 7.72071E+00
 7.74843E+00
 7.75756E+00
 7.75813E+00
 7.72692E+00
 7.73221E+00
 7.72680E+00
 7.77152E+00
 7.76998E+00
 7.79699E+00
 7.81536E+00
 7.79506E+00
 7.76551E+00
 7.78871E+00
 7.84066E+00
 7.85274E+00
 7.87699E+00
 7.86309E+00
 7.87001E+00
 7.90575E+00
 7.95100E+00
 7.95789E+00
 7.96786E+00
 7.97876E+00
 7.84148E+00
 7.85450E+00
 7.83390E+00
 7.84082E+00
 7.89918E+00
 7.88911E+00
 7.88938E+00
 7.89128E+00
 7.88501E+00
 7.87009E+00
 7.86282E+00
 7.87024E+00
 7.86170E+00
 7.85590E+00
 7.85867E+00
 7.85121E+00
 7.86430E+00
 7.89683E+00
 7.94498E+00
 7.99010E+00
 7.97604E+00
 7.98992E+00
 8.02504E+00
 8.03913E+00
 8.07907E+00
 8.08347E+00
 8.09995E+00
 8.06328E+00
 8.06830E+00
 8.00491E+00
 7.99117E+00
 8.00624E+00
 8.00317E+00
 7.99895E+00
 8.05696E+00
 8.00772E+00
 8.02121E+00
 8.04970E+00
 8.04794E+00
 8.04026E+00
 8.04699E+00
 8.02067E+00
 8.02337E+00
 8.02738E+00
 8.06035E+00
 8.07801E+00
 8.09845E+00
 8.12264E+00
 8.13732E+00
 8.14933E+00
 8.15289E+00
 8.17148E+00
 8.18737E+00
 8.16709E+00
 8.18176E+00
 8.18885E+00
 8.18647E+00
 8.23431E+00
 SCALARS predictedDisp11 float  1                  
LOOKUP_TABLE default
 8.45375E-01
 9.18512E-01
 9.90399E-01
 1.05858E+00
 1.12285E+00
 1.18759E+00
 1.25399E+00
 1.32064E+00
 1.38787E+00
 1.45210E+00
 1.51368E+00
 1.58048E+00
 1.65072E+00
 1.72363E+00
 1.79751E+00
 1.87267E+00
 1.94959E+00
 2.02404E+00
 2.09511E+00
 2.16550E+00
 2.23822E+00
 2.31068E+00
 2.37999E+00
 2.44644E+00
 2.51139E+00
 2.57691E+00
 2.64421E+00
 2.70857E+00
 2.76955E+00
 8.90186E-01
 9.48606E-01
 1.00465E+00
 1.07460E+00
 1.14828E+00
 1.21343E+00
 1.28108E+00
 1.34392E+00
 1.40420E+00
 1.47725E+00
 1.54737E+00
 1.61160E+00
 1.67826E+00
 1.74641E+00
 1.81957E+00
 1.89044E+00
 1.95937E+00
 2.03009E+00
 2.10744E+00
 2.18569E+00
 2.25436E+00
 2.32320E+00
 2.39301E+00
 2.46103E+00
 2.53081E+00
 2.59743E+00
 2.65937E+00
 2.72859E+00
 2.79242E+00
 9.06674E-01
 9.70751E-01
 1.03339E+00
 1.09948E+00
 1.16801E+00
 1.23538E+00
 1.30111E+00
 1.36478E+00
 1.42938E+00
 1.49890E+00
 1.57023E+00
 1.63898E+00
 1.70571E+00
 1.77290E+00
 1.84128E+00
 1.90984E+00
 1.97882E+00
 2.05060E+00
 2.12590E+00
 2.20081E+00
 2.27208E+00
 2.34079E+00
 2.40851E+00
 2.47584E+00
 2.54265E+00
 2.60732E+00
 2.67066E+00
 2.73393E+00
 2.80250E+00
 9.27550E-01
 9.96429E-01
 1.05878E+00
 1.12376E+00
 1.19005E+00
 1.25608E+00
 1.32156E+00
 1.38635E+00
 1.45252E+00
 1.52242E+00
 1.59391E+00
 1.66431E+00
 1.73236E+00
 1.79885E+00
 1.86546E+00
 1.93259E+00
 2.00127E+00
 2.07238E+00
 2.14540E+00
 2.21821E+00
 2.28883E+00
 2.35732E+00
 2.42392E+00
 2.48937E+00
 2.55413E+00
 2.61734E+00
 2.67915E+00
 2.74264E+00
 2.81087E+00
 9.47098E-01
 1.01391E+00
 1.08071E+00
 1.14652E+00
 1.21233E+00
 1.27784E+00
 1.34347E+00
 1.41041E+00
 1.47941E+00
 1.55017E+00
 1.62149E+00
 1.69250E+00
 1.76200E+00
 1.82874E+00
 1.89312E+00
 1.95659E+00
 2.02116E+00
 2.08866E+00
 2.15940E+00
 2.23106E+00
 2.30139E+00
 2.37032E+00
 2.43755E+00
 2.50292E+00
 2.56696E+00
 2.62971E+00
 2.69088E+00
 2.75203E+00
 2.82097E+00
 9.70323E-01
 1.03679E+00
 1.10424E+00
 1.17026E+00
 1.23555E+00
 1.30101E+00
 1.36807E+00
 1.43815E+00
 1.51031E+00
 1.58333E+00
 1.65688E+00
 1.72919E+00
 1.79774E+00
 1.86154E+00
 1.92147E+00
 1.97949E+00
 2.03783E+00
 2.09863E+00
 2.16354E+00
 2.23304E+00
 2.30503E+00
 2.37680E+00
 2.44729E+00
 2.51560E+00
 2.58150E+00
 2.64599E+00
 2.71023E+00
 2.77195E+00
 2.84197E+00
 9.96837E-01
 1.06484E+00
 1.13086E+00
 1.19534E+00
 1.26044E+00
 1.32675E+00
 1.39568E+00
 1.46790E+00
 1.54273E+00
 1.61882E+00
 1.69307E+00
 1.76161E+00
 1.82473E+00
 1.88480E+00
 1.94336E+00
 2.00102E+00
 2.05798E+00
 2.11444E+00
 2.17169E+00
 2.23339E+00
 2.30287E+00
 2.37733E+00
 2.45205E+00
 2.52483E+00
 2.59460E+00
 2.66239E+00
 2.73013E+00
 2.80240E+00
 2.85722E+00
 1.01788E+00
 1.09188E+00
 1.15363E+00
 1.21962E+00
 1.28633E+00
 1.35444E+00
 1.42456E+00
 1.49739E+00
 1.57290E+00
 1.64670E+00
 1.71344E+00
 1.77482E+00
 1.83515E+00
 1.89672E+00
 1.95948E+00
 2.02197E+00
 2.08249E+00
 2.14020E+00
 2.19567E+00
 2.25085E+00
 2.31046E+00
 2.37962E+00
 2.45528E+00
 2.53017E+00
 2.60204E+00
 2.67102E+00
 2.73830E+00
 2.80355E+00
 2.87111E+00
 1.02799E+00
 1.09327E+00
 1.16897E+00
 1.24057E+00
 1.31098E+00
 1.38096E+00
 1.45168E+00
 1.52414E+00
 1.59518E+00
 1.65921E+00
 1.71820E+00
 1.77808E+00
 1.84145E+00
 1.90733E+00
 1.97406E+00
 2.04017E+00
 2.10462E+00
 2.16691E+00
 2.22658E+00
 2.28281E+00
 2.33716E+00
 2.39581E+00
 2.46394E+00
 2.53665E+00
 2.60755E+00
 2.67623E+00
 2.74275E+00
 2.80577E+00
 2.88057E+00
 1.04732E+00
 1.11899E+00
 1.19286E+00
 1.26504E+00
 1.33625E+00
 1.40624E+00
 1.47567E+00
 1.54440E+00
 1.60742E+00
 1.66499E+00
 1.72398E+00
 1.78733E+00
 1.85363E+00
 1.92102E+00
 1.98842E+00
 2.05536E+00
 2.12178E+00
 2.18758E+00
 2.25215E+00
 2.31434E+00
 2.37225E+00
 2.42656E+00
 2.48413E+00
 2.54938E+00
 2.61822E+00
 2.68764E+00
 2.75745E+00
 2.82857E+00
 2.89830E+00
 1.08126E+00
 1.15981E+00
 1.22298E+00
 1.29217E+00
 1.36182E+00
 1.43034E+00
 1.49658E+00
 1.55869E+00
 1.61721E+00
 1.67617E+00
 1.73879E+00