# vtk DataFile Version 2.0
OUTPUT FROM BUFEM
ASCII
DATASET UNSTRUCTURED_GRID
POINTS         3721 FLOAT
   0.00000000E+00   0.00000000E+00   0.00000000E+00
   0.16666670E-01   0.00000000E+00   0.00000000E+00
   0.33333330E-01   0.00000000E+00   0.00000000E+00
   0.50000000E-01   0.00000000E+00   0.00000000E+00
   0.66666670E-01   0.00000000E+00   0.00000000E+00
   0.83333330E-01   0.00000000E+00   0.00000000E+00
   0.10000000E+00   0.00000000E+00   0.00000000E+00
   0.11666670E+00   0.00000000E+00   0.00000000E+00
   0.13333330E+00   0.00000000E+00   0.00000000E+00
   0.15000000E+00   0.00000000E+00   0.00000000E+00
   0.16666670E+00   0.00000000E+00   0.00000000E+00
   0.18333330E+00   0.00000000E+00   0.00000000E+00
   0.20000000E+00   0.00000000E+00   0.00000000E+00
   0.21666670E+00   0.00000000E+00   0.00000000E+00
   0.23333330E+00   0.00000000E+00   0.00000000E+00
   0.25000000E+00   0.00000000E+00   0.00000000E+00
   0.26666670E+00   0.00000000E+00   0.00000000E+00
   0.28333330E+00   0.00000000E+00   0.00000000E+00
   0.30000000E+00   0.00000000E+00   0.00000000E+00
   0.31666670E+00   0.00000000E+00   0.00000000E+00
   0.33333330E+00   0.00000000E+00   0.00000000E+00
   0.35000000E+00   0.00000000E+00   0.00000000E+00
   0.36666670E+00   0.00000000E+00   0.00000000E+00
   0.38333330E+00   0.00000000E+00   0.00000000E+00
   0.40000000E+00   0.00000000E+00   0.00000000E+00
   0.41666670E+00   0.00000000E+00   0.00000000E+00
   0.43333330E+00   0.00000000E+00   0.00000000E+00
   0.45000000E+00   0.00000000E+00   0.00000000E+00
   0.46666670E+00   0.00000000E+00   0.00000000E+00
   0.48333330E+00   0.00000000E+00   0.00000000E+00
   0.50000000E+00   0.00000000E+00   0.00000000E+00
   0.51666670E+00   0.00000000E+00   0.00000000E+00
   0.53333330E+00   0.00000000E+00   0.00000000E+00
   0.55000000E+00   0.00000000E+00   0.00000000E+00
   0.56666670E+00   0.00000000E+00   0.00000000E+00
   0.58333330E+00   0.00000000E+00   0.00000000E+00
   0.60000000E+00   0.00000000E+00   0.00000000E+00
   0.61666670E+00   0.00000000E+00   0.00000000E+00
   0.63333330E+00   0.00000000E+00   0.00000000E+00
   0.65000000E+00   0.00000000E+00   0.00000000E+00
   0.66666670E+00   0.00000000E+00   0.00000000E+00
   0.68333330E+00   0.00000000E+00   0.00000000E+00
   0.70000000E+00   0.00000000E+00   0.00000000E+00
   0.71666670E+00   0.00000000E+00   0.00000000E+00
   0.73333330E+00   0.00000000E+00   0.00000000E+00
   0.75000000E+00   0.00000000E+00   0.00000000E+00
   0.76666670E+00   0.00000000E+00   0.00000000E+00
   0.78333330E+00   0.00000000E+00   0.00000000E+00
   0.80000000E+00   0.00000000E+00   0.00000000E+00
   0.81666670E+00   0.00000000E+00   0.00000000E+00
   0.83333330E+00   0.00000000E+00   0.00000000E+00
   0.85000000E+00   0.00000000E+00   0.00000000E+00
   0.86666670E+00   0.00000000E+00   0.00000000E+00
   0.88333330E+00   0.00000000E+00   0.00000000E+00
   0.90000000E+00   0.00000000E+00   0.00000000E+00
   0.91666670E+00   0.00000000E+00   0.00000000E+00
   0.93333330E+00   0.00000000E+00   0.00000000E+00
   0.95000000E+00   0.00000000E+00   0.00000000E+00
   0.96666670E+00   0.00000000E+00   0.00000000E+00
   0.98333330E+00   0.00000000E+00   0.00000000E+00
   0.10000000E+01   0.00000000E+00   0.00000000E+00
   0.00000000E+00   0.16666670E-01   0.00000000E+00
   0.16666670E-01   0.16666670E-01   0.00000000E+00
   0.33333330E-01   0.16666670E-01   0.00000000E+00
   0.50000000E-01   0.16666670E-01   0.00000000E+00
   0.66666670E-01   0.16666670E-01   0.00000000E+00
   0.83333330E-01   0.16666670E-01   0.00000000E+00
   0.10000000E+00   0.16666670E-01   0.00000000E+00
   0.11666670E+00   0.16666670E-01   0.00000000E+00
   0.13333330E+00   0.16666670E-01   0.00000000E+00
   0.15000000E+00   0.16666670E-01   0.00000000E+00
   0.16666670E+00   0.16666670E-01   0.00000000E+00
   0.18333330E+00   0.16666670E-01   0.00000000E+00
   0.20000000E+00   0.16666670E-01   0.00000000E+00
   0.21666670E+00   0.16666670E-01   0.00000000E+00
   0.23333330E+00   0.16666670E-01   0.00000000E+00
   0.25000000E+00   0.16666670E-01   0.00000000E+00
   0.26666670E+00   0.16666670E-01   0.00000000E+00
   0.28333330E+00   0.16666670E-01   0.00000000E+00
   0.30000000E+00   0.16666670E-01   0.00000000E+00
   0.31666670E+00   0.16666670E-01   0.00000000E+00
   0.33333330E+00   0.16666670E-01   0.00000000E+00
   0.35000000E+00   0.16666670E-01   0.00000000E+00
   0.36666670E+00   0.16666670E-01   0.00000000E+00
   0.38333330E+00   0.16666670E-01   0.00000000E+00
   0.40000000E+00   0.16666670E-01   0.00000000E+00
   0.41666670E+00   0.16666670E-01   0.00000000E+00
   0.43333330E+00   0.16666670E-01   0.00000000E+00
   0.45000000E+00   0.16666670E-01   0.00000000E+00
   0.46666670E+00   0.16666670E-01   0.00000000E+00
   0.48333330E+00   0.16666670E-01   0.00000000E+00
   0.50000000E+00   0.16666670E-01   0.00000000E+00
   0.51666670E+00   0.16666670E-01   0.00000000E+00
   0.53333330E+00   0.16666670E-01   0.00000000E+00
   0.55000000E+00   0.16666670E-01   0.00000000E+00
   0.56666670E+00   0.16666670E-01   0.00000000E+00
   0.58333330E+00   0.16666670E-01   0.00000000E+00
   0.60000000E+00   0.16666670E-01   0.00000000E+00
   0.61666670E+00   0.16666670E-01   0.00000000E+00
   0.63333330E+00   0.16666670E-01   0.00000000E+00
   0.65000000E+00   0.16666670E-01   0.00000000E+00
   0.66666670E+00   0.16666670E-01   0.00000000E+00
   0.68333330E+00   0.16666670E-01   0.00000000E+00
   0.70000000E+00   0.16666670E-01   0.00000000E+00
   0.71666670E+00   0.16666670E-01   0.00000000E+00
   0.73333330E+00   0.16666670E-01   0.00000000E+00
   0.75000000E+00   0.16666670E-01   0.00000000E+00
   0.76666670E+00   0.16666670E-01   0.00000000E+00
   0.78333330E+00   0.16666670E-01   0.00000000E+00
   0.80000000E+00   0.16666670E-01   0.00000000E+00
   0.81666670E+00   0.16666670E-01   0.00000000E+00
   0.83333330E+00   0.16666670E-01   0.00000000E+00
   0.85000000E+00   0.16666670E-01   0.00000000E+00
   0.86666670E+00   0.16666670E-01   0.00000000E+00
   0.88333330E+00   0.16666670E-01   0.00000000E+00
   0.90000000E+00   0.16666670E-01   0.00000000E+00
   0.91666670E+00   0.16666670E-01   0.00000000E+00
   0.93333330E+00   0.16666670E-01   0.00000000E+00
   0.95000000E+00   0.16666670E-01   0.00000000E+00
   0.96666670E+00   0.16666670E-01   0.00000000E+00
   0.98333330E+00   0.16666670E-01   0.00000000E+00
   0.10000000E+01   0.16666670E-01   0.00000000E+00
   0.00000000E+00   0.33333330E-01   0.00000000E+00
   0.16666670E-01   0.33333330E-01   0.00000000E+00
   0.33333330E-01   0.33333330E-01   0.00000000E+00
   0.50000000E-01   0.33333330E-01   0.00000000E+00
   0.66666670E-01   0.33333330E-01   0.00000000E+00
   0.83333330E-01   0.33333330E-01   0.00000000E+00
   0.10000000E+00   0.33333330E-01   0.00000000E+00
   0.11666670E+00   0.33333330E-01   0.00000000E+00
   0.13333330E+00   0.33333330E-01   0.00000000E+00
   0.15000000E+00   0.33333330E-01   0.00000000E+00
   0.16666670E+00   0.33333330E-01   0.00000000E+00
   0.18333330E+00   0.33333330E-01   0.00000000E+00
   0.20000000E+00   0.33333330E-01   0.00000000E+00
   0.21666670E+00   0.33333330E-01   0.00000000E+00
   0.23333330E+00   0.33333330E-01   0.00000000E+00
   0.25000000E+00   0.33333330E-01   0.00000000E+00
   0.26666670E+00   0.33333330E-01   0.00000000E+00
   0.28333330E+00   0.33333330E-01   0.00000000E+00
   0.30000000E+00   0.33333330E-01   0.00000000E+00
   0.31666670E+00   0.33333330E-01   0.00000000E+00
   0.33333330E+00   0.33333330E-01   0.00000000E+00
   0.35000000E+00   0.33333330E-01   0.00000000E+00
   0.36666670E+00   0.33333330E-01   0.00000000E+00
   0.38333330E+00   0.33333330E-01   0.00000000E+00
   0.40000000E+00   0.33333330E-01   0.00000000E+00
   0.41666670E+00   0.33333330E-01   0.00000000E+00
   0.43333330E+00   0.33333330E-01   0.00000000E+00
   0.45000000E+00   0.33333330E-01   0.00000000E+00
   0.46666670E+00   0.33333330E-01   0.00000000E+00
   0.48333330E+00   0.33333330E-01   0.00000000E+00
   0.50000000E+00   0.33333330E-01   0.00000000E+00
   0.51666670E+00   0.33333330E-01   0.00000000E+00
   0.53333330E+00   0.33333330E-01   0.00000000E+00
   0.55000000E+00   0.33333330E-01   0.00000000E+00
   0.56666670E+00   0.33333330E-01   0.00000000E+00
   0.58333330E+00   0.33333330E-01   0.00000000E+00
   0.60000000E+00   0.33333330E-01   0.00000000E+00
   0.61666670E+00   0.33333330E-01   0.00000000E+00
   0.63333330E+00   0.33333330E-01   0.00000000E+00
   0.65000000E+00   0.33333330E-01   0.00000000E+00
   0.66666670E+00   0.33333330E-01   0.00000000E+00
   0.68333330E+00   0.33333330E-01   0.00000000E+00
   0.70000000E+00   0.33333330E-01   0.00000000E+00
   0.71666670E+00   0.33333330E-01   0.00000000E+00
   0.73333330E+00   0.33333330E-01   0.00000000E+00
   0.75000000E+00   0.33333330E-01   0.00000000E+00
   0.76666670E+00   0.33333330E-01   0.00000000E+00
   0.78333330E+00   0.33333330E-01   0.00000000E+00
   0.80000000E+00   0.33333330E-01   0.00000000E+00
   0.81666670E+00   0.33333330E-01   0.00000000E+00
   0.83333330E+00   0.33333330E-01   0.00000000E+00
   0.85000000E+00   0.33333330E-01   0.00000000E+00
   0.86666670E+00   0.33333330E-01   0.00000000E+00
   0.88333330E+00   0.33333330E-01   0.00000000E+00
   0.90000000E+00   0.33333330E-01   0.00000000E+00
   0.91666670E+00   0.33333330E-01   0.00000000E+00
   0.93333330E+00   0.33333330E-01   0.00000000E+00
   0.95000000E+00   0.33333330E-01   0.00000000E+00
   0.96666670E+00   0.33333330E-01   0.00000000E+00
   0.98333330E+00   0.33333330E-01   0.00000000E+00
   0.10000000E+01   0.33333330E-01   0.00000000E+00
   0.00000000E+00   0.50000000E-01   0.00000000E+00
   0.16666670E-01   0.50000000E-01   0.00000000E+00
   0.33333330E-01   0.50000000E-01   0.00000000E+00
   0.50000000E-01   0.50000000E-01   0.00000000E+00
   0.66666670E-01   0.50000000E-01   0.00000000E+00
   0.83333330E-01   0.50000000E-01   0.00000000E+00
   0.10000000E+00   0.50000000E-01   0.00000000E+00
[...]
POINT_DATA         3721
 SCALARS meas11 float  1  
LOOKUP_TABLE default
 -0.139466803430314     
 -0.135845294138413     
 -0.132146235237922     
 -0.128322046512596     
 -0.124347454442040     
 -0.120211545098188     
 -0.115913060179384     
 -0.111457649405155     
 -0.106856257165146     
 -0.102123943358806     
 -9.727929716791678E-002
 -9.234365613927875E-002
 -8.734022130479080E-002
 -8.229326306515337E-002
 -7.722686739682502E-002
 -7.216353265091184E-002
 -6.712299531929539E-002
 -6.212087978665221E-002
 -5.716762068333383E-002
 -5.226809738024345E-002
 -4.742157517683183E-002
 -4.262228289066645E-002
 -3.786082121184497E-002
 -3.312570389808824E-002
 -2.840504172292613E-002
 -2.368834172935970E-002
 -1.896767349612026E-002
 -1.423830611359633E-002
 -9.499018850645552E-003
 -4.751615506655238E-003
  0.000000000000000E+000
  4.750790260227039E-003
  9.495951205162586E-003
  1.423226189359730E-002
  1.895899845250970E-002
  2.367876479187922E-002
  2.839784005654126E-002
  3.312568890398988E-002
  3.787411994013893E-002
  4.265591912928161E-002
  4.748289039114674E-002
  5.236408899721154E-002
  5.730429648687369E-002
  6.230272156855812E-002
  6.735260373045068E-002
  7.244148417500042E-002
  7.755177263175148E-002
  8.266199354600468E-002
  8.774825315246666E-002
  9.278547055171989E-002
  9.774878217479067E-002
  0.102614743495511     
  0.107362030584221     
  0.111972213432727     
  0.116430427218213     
  0.120725880102642     
  0.124852934775579     
  0.128812835849210     
  0.132616462833839     
  0.136289845286047     
  0.139885770453809     
 -0.139406930243910     
 -0.135799581391029     
 -0.132108221785906     
 -0.128288617582621     
 -0.124316855949704     
 -0.120182690516652     
 -0.115885241372108     
 -0.111430387793669     
 -0.106829213240994     
 -0.102096860026829     
 -9.725196890407954E-002
 -9.231592043246271E-002
 -8.731196672647010E-002
 -8.226444670259513E-002
 -7.719753465375932E-002
 -7.213383333665797E-002
 -6.709319199907417E-002
 -6.209134562406610E-002
 -5.713882443510291E-002
 -5.224057403493757E-002
 -4.739588230690342E-002
 -4.259894641720589E-002
 -3.784027849622452E-002
 -3.310825486687074E-002
 -2.839081873943090E-002
 -2.367730493078673E-002
 -1.895963244617319E-002
 -1.423296254721568E-002
 -9.496021253057256E-003
 -4.750616014268188E-003
 -7.057281541750095E-007
  4.748576522805644E-003
  9.492303209653200E-003
  1.422711620713608E-002
  1.895215584633176E-002
  2.366990821706689E-002
  2.838657060695852E-002
  3.311157944007625E-002
  3.785678202999998E-002
  4.263507391803652E-002
  4.745843033505338E-002
  5.233611626123343E-002
  5.727312813784147E-002
  6.226886020303610E-002
  6.731668036794708E-002
  7.240418696217983E-002
  7.751377658794292E-002
  8.262390333560492E-002
  8.771056634719390E-002
  9.274856352816814E-002
  9.771291697642438E-002
  0.102580091725139     
  0.107328708523028     
  0.111940323156891     
  0.116400100769412     
  0.120697330193493     
  0.124826531850513     
  0.128789255320135     
  0.132596958221101     
  0.136276518369945     
  0.139879986808142     
 -0.139296690953498     
 -0.135694889866099     
 -0.132010375857685     
 -0.128195666633019     
 -0.124226889757812     
 -0.120094233588602     
 -0.115797216955418     
 -0.111342013938997     
 -0.106739910378308     
 -0.102006196371276     
 -9.715965030493699E-002
 -9.222181808460454E-002
 -8.721616724186612E-002
 -8.216730511738184E-002
 -7.709971140226604E-002
 -7.203630049868139E-002
 -6.699720021714538E-002
 -6.199834972126847E-002
 -5.705037289174213E-002
 -5.215817418463451E-002
 -4.732085945886397E-002
 -4.253231857566710E-002
 -3.778266711648142E-002
 -3.305984754511836E-002
 -2.835139032677238E-002
 -2.364629229894150E-002
 -1.893624972602531E-002
 -1.421633747340713E-002
 -9.485332026775305E-003
 -4.745211975789515E-003
 -1.994898388054371E-007
  4.744253314169644E-003
  9.482884183743738E-003
  1.421202622381982E-002
  1.893057837451576E-002
  2.364089050733345E-002
  2.834915853703169E-002
  3.306496819585757E-002
  3.780046187948080E-002
  4.256894717379171E-002
  4.738287784587591E-002
  5.225199842811444E-002
  5.718171860674623E-002
  6.217172465840223E-002
  6.721552255758340E-002
  7.230068939239104E-002
  7.740946161787646E-002
  8.252003349061574E-002
  8.760809423356879E-002
  9.264813195481959E-002
  9.761490098473603E-002
  0.102484667097116     
  0.107235926913937     
  0.111850174677001     
  0.116312550907272     
  0.120612329706812     
  0.124744012695057     
  0.128709129584989     
  0.132519097859808     
  0.136200540633581     
  0.139804495036004     
 -0.139131333762716     
 -0.135534066243360     
 -0.131854771892491     
 -0.128044139708832     
 -0.124077708008333     
 -0.119945816147919     
 -0.115648312338760     
 -0.111191668891418     
 -0.106587396081334     
 -0.101850967118976     
 -9.700136051680661E-002
 -9.206039178648953E-002
 -8.705189554270748E-002
 -8.200093965994555E-002
 -7.693252253455538E-002
 -7.187007673117887E-002
 -6.683417642019319E-002
 -6.184106350026747E-002
 -5.690146151545084E-002
 -5.202013631507130E-002
 -4.719581645153575E-002
 -4.242181409798371E-002
 -3.768753866864821E-002
 -3.298019276628218E-002
 -2.828663300039656E-002
 -2.359533389802199E-002
 -1.889767986848740E-002
 -1.418866885040322E-002
 -9.467225945794241E-003
 -4.735668808255753E-003
  1.303830210718887E-006
  4.737689392347529E-003
  9.467669282588883E-003
  1.418708354027806E-002
  1.889446854801984E-002
  2.359200120035295E-002
  2.828593693843749E-002
  3.298617091720993E-002
  3.770538636950017E-002
  4.245760580384517E-002
  4.725608208778952E-002
  5.211133346310867E-002
  5.702941087402461E-002
  6.201042699740095E-002
  6.704805518051310E-002
  7.212978100382084E-002
  7.723753040409356E-002
  8.234903598019272E-002
  8.743945649912176E-002
  9.248276208753910E-002
  9.745326722714429E-002
  0.102326913934868     
  0.107081993791882     
  0.111699882431637     
  0.116165630064522     
  0.120468382450002     
  0.124602421842636     
  0.128568941670099     
  0.132378904247209     
  0.136058387298013     
  0.139658102360857     
 -0.138905768186923     
 -0.135314111545550     
 -0.131639854609069     
 -0.127832701761123     
 -0.123867845777836     
 -0.119735802742216     
 -0.115436770208812     
 -0.110977536796690     
 -0.106369847799661     
 -0.101629375850921     
 -9.677534417855715E-002
 -9.182992970687819E-002
 -8.681748036677082E-002
 -8.176371779793187E-002
 -7.669437827938959E-002
 -7.163362736989604E-002
 -6.660266207337202E-002
 -6.161813291567308E-002
 -5.669087364483831E-002
 -5.182541455357127E-002
 -4.701990727101762E-002
 -4.226680652780580E-002
 -3.755449218375372E-002
 -3.286910438492843E-002
 -2.819654775301323E-002
 -2.352457546075130E-002
 -1.884416088815334E-002
 -1.415023040372199E-002
 -9.441957780176966E-003
 -4.722174795728820E-003
  3.718714369694253E-006
  4.728923957688058E-003
  9.446827729568298E-003
  1.415257430162035E-002
  1.884419691357262E-002
  2.352364376989621E-002
  2.819727466488840E-002
  3.287544419039390E-002
  3.757162106841695E-002
  4.230085534402194E-002
  4.707753971842026E-002
  5.191328772880091E-002
  5.681504895057043E-002
  6.178352224730287E-002
  6.681259443360384E-002
  7.188959508015036E-002
  7.699598412042483E-002
  8.210881686489881E-002
  8.720248221349232E-002
  9.225020449331738E-002
  9.722567002146021E-002
  0.102104363006388     
  0.106864287976465     
  0.111486652236652     
  0.115956364705987     
  0.120262352318055     
  0.124398519859351     
  0.128365503838870     
  0.132173610011263     
  0.135848424530543     
  0.139441027687034     
 -0.138614890748592     
 -0.135030534642306     
 -0.131361975683249     
 -0.127558149375472     
 -0.123594252673339     
 -0.119461192950891     
 -0.115159634119277     
 -0.110696731009814     
 -0.106084472501095     
 -0.101338731934824     
 -9.647900674048832E-002
 -9.152791884747970E-002
 -8.651047685158055E-002
 -8.145325896057951E-002
 -7.638297345308397E-002
 -7.132475011219100E-002
 -6.630059949773433E-002
 -6.132769574918466E-002
 -5.641699500923781E-002
 -5.157268811720032E-002
 -4.679213505663582E-002
 -4.206663209452412E-002
 -3.738318177222389E-002
 -3.272651520655908E-002
 -2.808128670761287E-002
 -2.343431535018840E-002
 -1.877605862938948E-002
 -1.410137908853167E-002
 -9.409808540576048E-003
 -4.704882577477577E-003
  7.054868053720721E-006
  4.718141934520378E-003
  9.420709737510557E-003
  1.410898044618370E-002
  1.878032039775334E-002
  2.343637284722633E-002
  2.808363181267254E-002
  3.273305513235451E-002
  3.739914671644141E-002
  4.209831392184703E-002
  4.684645769855100E-002
  5.165664235139509E-002
  5.653700737009788E-002
  6.148902526677677E-002
  6.650685925124689E-002
  7.157762237671395E-002
  7.668214484074330E-002
  8.179657128271609E-002
  8.689425856459249E-002
  9.194743524048872E-002
  9.692895523460926E-002
  0.101813705790409     
  0.106579330674605     
  0.111206840861876     
  0.115680985947139     
  0.119990425615455     
  0.124128581823225     
  0.128095383560636     
  0.131900364010427     
  0.135568704216633     
  0.139152325612598     
 -0.138253524146442     
 -0.134678192525722     
 -0.131016266427623     
 -0.127215863516055     
 -0.123252472044292     
 -0.119117661097433     
 -0.114812725919794     
 -0.110345249919885     
 -0.105727461237162     
 -0.100975413173835     
 -9.610888866853760E-002
 -9.115103125732751E-002
 -8.612766381416297E-002
 -8.106644142439180E-002
 -7.599530230473399E-002
 -7.094059598796008E-002
 -6.592535697279851E-002
 -6.096740890827781E-002
 -5.607784169585084E-002
 -5.126038919608607E-002
 -4.651138015233110E-002
 -4.182061911601054E-002
 -3.717334904460928E-002
 -3.255251384332376E-002
 -2.794119485617418E-002
 -2.332505028911695E-002
 -1.869391436681840E-002
 -1.404260167390368E-002
 -9.371127907172217E-003
 -4.683944398183223E-003
  1.139189103805937E-005
  4.705661040141433E-003
  9.389848250943921E-003
  1.405699808326065E-002
  1.870361854726954E-002
  2.333094818805320E-002
  2.794562931459638E-002
  3.255936225202882E-002
  3.718794502665827E-002
  4.184949572457171E-002
  4.656182779511884E-002
  5.133985437329715E-002
  5.619323781706583E-002
  6.112444484484265E-002
  6.612799709880980E-002
  7.119073367176182E-002
  7.629267936917779E-002
  8.140881140424651E-002
  8.651116336515925E-002
  9.157069064281886E-002
  9.655919218484205E-002
  0.101450815758841     
  0.106222785534694     
  0.110855920466660     
  0.115334837317511     
  0.119647928631325     
  0.123788071709422     
  0.127754365702656     
  0.131555448215717     
  0.135216094541108     
  0.138789340012872     
 -0.137816086028539     
 -0.134251287349452     
 -0.130596860975485     
 -0.126800001929716     
 -0.122836739819114     
 -0.118699585838011     
 -0.114390639432406     
 -0.109917959043368     
 -0.105293973808248     
 -0.100534859547365     
 -9.566066998252658E-002
 -9.069513856221414E-002
 -8.566506649931634E-002
 -8.059943155723674E-002
 -7.552769296519989E-002
 -7.047770810403109E-002
 -6.547377117082132E-002
 -6.053449420226605E-002
 -5.567110904885519E-002
 -5.088675472456126E-002
 -4.617645440389299E-002
 -4.152814442489516E-002
 -3.692488122855696E-002
 -3.234740389959886E-002
 -2.777686927841320E-002
 -2.319753304312116E-002
 -1.859849895103369E-002
 -1.397456313475010E-002
 -9.326374586894117E-003
 -4.659542141136392E-003
  1.686180049386799E-005
  4.691928968710831E-003
  9.354972694706724E-003
  1.399756926524134E-002
  1.861514388427042E-002
  2.320840280209849E-002
  2.778413235229000E-002
  3.235490989067408E-002
  3.693809839985841E-002
  4.155390948569969E-002
  4.622251779074601E-002
  5.096113638062193E-002
  5.578133543100802E-002
  6.068683750990503E-002
  6.567262797106839E-002
  7.072521743631131E-002
  7.582363372767119E-002
  8.094139943696932E-002
  8.604889591178269E-002
  9.111549248539844E-002
  9.611168689490777E-002
  0.101010740745184     
  0.105789419210950     
  0.110428395099396     
  0.114912234043679     
  0.119229116320573     
  0.123371350360930     
  0.127337086193164     
  0.131133893192890     
  0.134786026003913     
  0.138347767455632     
 -0.137296232844879     
 -0.133743136026815     
 -0.130096809582448     
 -0.126303468768210     
 -0.122339956124509     
 -0.118200015325382     
 -0.113886708086430     
 -0.109408570886077     
 -0.104778136166475     
 -0.100011588886622     
 -9.512920197665718E-002
 -9.015535619006962E-002
 -8.511800972963660E-002
 -8.004774323222037E-002
 -7.497587159747890E-002
 -6.993208981791114E-002
 -6.494221921533622E-002
 -6.002581448901668E-002
 -5.519425198998333E-002
 -5.044991035273050E-002
 -4.578618748958528E-002
 -4.118872024326391E-002
 -3.663789662885446E-002
 -3.211178611459536E-002
 -2.758923610124994E-002
 -2.305284234573140E-002
 -1.849087398388574E-002
 -1.389815762200298E-002
 -9.276155783855761E-003
 -4.631913928864625E-003
  2.363682424635965E-005
  4.677527219456528E-003
  9.317030558722511E-003
  1.393192283980468E-002
  1.851628275468206E-002
  2.307012324207753E-002
  2.760034798228964E-002
  3.212053943253592E-002
  3.664990940550045E-002
  4.121117987208749E-002
  4.582738844763180E-002
  5.051856410424015E-002
  5.529863444992891E-002
  6.017289103774368E-002
  6.513691731102808E-002
  7.017684446015121E-002
  7.527049153437269E-002
  8.038960044591019E-002
  8.550252255670965E-002
  9.057668182100605E-002
  9.558099690047359E-002
  0.100487689461257     
  0.105273049488909     
  0.109917701565786     
  0.114406311412340     
  0.118726969341488     
  0.122871433206304     
  0.126836781087465     
  0.130629278054365     
  0.134272427380883     
  0.137821787235596     
 -0.136686517199675     
 -0.133145855727690     
 -0.129507826322542     
 -0.125717713729569     
 -0.121753519261821     
 -0.117610532323451     
 -0.113292904729901     
 -0.108809582395827     
 -0.104173014476632     
 -9.939920287114543E-002
 -9.450853868357086E-002
 -8.952609357546275E-002
 -8.448118095706093E-002
 -7.940630967966253E-002
 -7.433504081477094E-002
 -6.929928858883544E-002
 -6.432670761232834E-002
 -5.943796781032083E-002
 -5.464458420160335E-002
 -4.994797345641629E-002
 -4.533953131562320E-002
 -4.080209686321345E-002
 -3.631284259841933E-002
 -3.184664914475848E-002
 -2.737963211134908E-002
 -2.289245378651586E-002
 -1.837245099389543E-002
 -1.381455560774765E-002
 -9.221262317727366E-003
 -4.601376935253847E-003
  3.191969334557337E-005
  4.663175817777088E-003
  9.277208495932590E-003
  1.386161415490309E-002
  1.840881531382303E-002
  2.291793031594102E-002
  2.739592549415340E-002
  3.185750648152558E-002
  3.632402999069683E-002
  4.082118219601235E-002
  4.537542653262753E-002
  5.001020160731664E-002
  5.474232180349277E-002
  5.957902528283034E-002
  6.451666468360040E-002
  6.954094571740381E-002
  7.462824227599842E-002
  7.974814100107705E-002
  8.486652322478826E-002
  8.994844794770078E-002
  9.496093473280519E-002
  9.987499971433544E-002
  0.104666468373153     
  0.109316080346942     
  0.113808842567140     
  0.118132966829488     
  0.122279737833320     
  0.126245042527414     
  0.130033540258266     
  0.133667631633390     
  0.137204069455125     
 -0.135978091166378     
 -0.132450046163640     
 -0.128819980345075     
 -0.125032453821771     
 -0.121067090526168     
 -0.116921072279387     
 -0.112599720236221     
 -0.108112215808395     
 -0.103470613742195     
 -9.869043484817709E-002
 -9.379202403370963E-002
 -8.880117110027114E-002
 -8.374876855467475E-002
 -7.866963707587199E-002
 -7.360004448154156E-002
 -6.857456865250278E-002
 -6.362305011285768E-002
 -5.876746832469316E-002
 -5.401945961386009E-002
 -4.937923129509408E-002
 -4.483572970235507E-002
 -4.036841865656437E-002
 -3.595063393525662E-002
 -3.155348821601815E-002
 -2.714990303424287E-002
 -2.271831818929569E-002
 -1.824505150080930E-002
 -1.372524833696948E-002
 -9.162700432176915E-003
 -4.568348469476818E-003
  4.193290734505643E-005
  4.649734134013419E-003
  9.236947846086731E-003
  1.378855989893156E-002
  1.829497429711098E-002
  2.275416530694580E-002
  2.717307202667881E-002
  3.156762570901583E-002
  3.596163244525826E-002
  4.038423303151898E-002
  4.486594626860806E-002
  4.943430472083338E-002
  5.410963581733427E-002
  5.890158212874866E-002
  6.380748270368668E-002
  6.881257874580417E-002
  7.389153390442102E-002
  7.901134613429805E-002
  8.413490869066124E-002
  8.922441935025623E-002
  9.424462380047481E-002
  9.916514886969244E-002
  0.103961396787094     
  0.108614467706490     
  0.113110068509140     
  0.117436864846249     
  0.121585832762094     
  0.125551569939727     
  0.129336765291782     
  0.132962228475652     
  0.136485682937262     
 -0.135160343990433     
 -0.131644385487815     
 -0.128021273823574     
 -0.124235268365592     
 -0.120268236868122     
 -0.116119636016023     
 -0.111795958996656     
 -0.107306299517668     
 -0.102661837888782     
 -9.787717814722717E-002
 -9.297237672034758E-002
 -8.797395032694311E-002
 -8.291462692902134E-002
 -7.783199661789959E-002
 -7.276558038261896E-002
 -6.775313754227053E-002
 -6.282710170922554E-002
 -5.801098223675050E-002
 -5.331650426922691E-002
 -4.874236114843054E-002
 -4.427451808669435E-002
 -3.988839581555340E-002
 -3.555279242539905E-002
 -3.123441204670971E-002
 -2.690248025549650E-002
 -2.253291233898988E-002
 -1.811093760922886E-002
 -1.363206579804216E-002
 -9.101704720117048E-003
 -4.533358953841556E-003
  5.390386004595054E-005
  4.638185430130554E-003
  9.197933997145084E-003
  1.371504099517279E-002
  1.817747087958922E-002
  2.258174719803406E-002
  2.693464791903361E-002
  3.125340854147800E-002
  3.556458929450745E-002
  3.990130638114799E-002
  4.429883079812759E-002
  4.878957506611161E-002
  5.339812188190677E-002
  5.813707489587142E-002
  6.300503397799771E-002
  6.798674647202844E-002
  7.305486888551360E-002
  7.817330861248724E-002
  8.330135753227978E-002
  8.839776079095461E-002
  9.342454700880186E-002
  9.834974384134379E-002
  0.103148405180309     
  0.107802339585453     
  0.112298465814044     
  0.116626399071188     
  0.120777097556626     
  0.124743819343067     
  0.128526859520470     
  0.132144783640585     
  0.135655854979614     
 -0.134220447674202     
 -0.130715125195123     
 -0.127097105672377     
 -0.123311074443647     
 -0.119341960379412     
 -0.115191904626017     
 -0.110868456983183     
 -0.106380093725593     
 -0.101736416889374     
 -9.695050379032523E-002
 -9.204178813094099E-002
 -8.703750190782969E-002
 -8.197250280183038E-002
 -7.688769945783656E-002
 -7.182651364988968E-002
 -6.683048452015360E-002
 -6.193510820887019E-002
 -5.716567590042588E-002
 -5.253394978727018E-002
 -4.803673405313540E-002
 -4.365638228035638E-002
 -3.936350676736248E-002
 -3.512158877362791E-002
 -3.089222767637279E-002
 -2.664041711786837E-002
 -2.233923819236921E-002
 -1.797278803392666E-002
 -1.353714602154966E-002
 -9.039716814455609E-003
 -4.497050802518690E-003
  6.804146460848722E-005
  4.629590604702972E-003
  9.162036899290732E-003
  1.364364626704897E-002
  1.805945971703044E-002
  2.240417634110069E-002
  2.668422458794587E-002
  3.091818767186271E-002
  3.513567031185171E-002
  3.937429905818227E-002
  4.367485178768862E-002
  4.807551441623475E-002
  5.260600289727401E-002
  5.728255946101118E-002
  6.210538879176252E-002
  6.705872714381937E-002
  7.211289431038698E-002
  7.722813089380469E-002
  8.235940195938814E-002
  8.746129491739045E-002
  9.249259783385039E-002
  9.741949446904094E-002
  0.102216800156663     
  0.106867504988280     
  0.111360448044532     
  0.115686906156729     
  0.119838287389751     
  0.123806544287842     
  0.127589104933594     
  0.131201435904085     
  0.134701608818445     
 -0.133142841753911     
 -0.129645523663871     
 -0.126029668092068     
 -0.122241534563229     