# vtk DataFile Version 2.0
Output of NLACE
ASCII
DATASET UNSTRUCTURED_GRID
POINTS           27 FLOAT
 0.000000E+00  0.000000E+00  0.000000E+00
 5.000000E+00  0.000000E+00  0.000000E+00
 1.000000E+01  0.000000E+00  0.000000E+00
 0.000000E+00  5.000000E+00  0.000000E+00
 5.000000E+00  5.000000E+00  0.000000E+00
 1.000000E+01  5.000000E+00  0.000000E+00
 0.000000E+00  1.000000E+01  0.000000E+00
 5.000000E+00  1.000000E+01  0.000000E+00
 1.000000E+01  1.000000E+01  0.000000E+00
 0.000000E+00  0.000000E+00 -5.000000E+00
 5.000000E+00  0.000000E+00 -5.000000E+00
 1.000000E+01  0.000000E+00 -5.000000E+00
 0.000000E+00  5.000000E+00 -5.000000E+00
 5.000000E+00  5.000000E+00 -5.000000E+00
 1.000000E+01  5.000000E+00 -5.000000E+00
 0.000000E+00  1.000000E+01 -5.000000E+00
 5.000000E+00  1.000000E+01 -5.000000E+00
 1.000000E+01  1.000000E+01 -5.000000E+00
 0.000000E+00  0.000000E+00 -1.000000E+01
 5.000000E+00  0.000000E+00 -1.000000E+01
 1.000000E+01  0.000000E+00 -1.000000E+01
 0.000000E+00  5.000000E+00 -1.000000E+01
 5.000000E+00  5.000000E+00 -1.000000E+01
 1.000000E+01  5.000000E+00 -1.000000E+01
 0.000000E+00  1.000000E+01 -1.000000E+01
 5.000000E+00  1.000000E+01 -1.000000E+01
 1.000000E+01  1.000000E+01 -1.000000E+01
CELLS           40         200
4    0    9   12   10
4    4   12   13   10
4    4   12   10    0
4    4    0    3   12
4    1    0    4   10
4    4   10   13   14
4    2   10   14   11
4    2   10    4   14
4    1   10    4    2
4    5    4   14    2
4    6   12   15   16
4    4   12   16   13
4    4   12    6   16
4    3   12    6    4
4    7    6   16    4
4    4   13   16   14
4    8   16   17   14
4    8   16   14    4
4    8    4    7   16
4    5    4    8   14
4   12   18   21   22
4   10   18   22   19
4   10   18   12   22
4    9   18   12   10
4   13   12   22   10
4   10   19   22   20
4   14   22   23   20
4   14   22   20   10
4   14   10   13   22
4   11   10   14   20
4   12   21   24   22
4   16   24   25   22
4   16   24   22   12
4   16   12   15   24
4   13   12   16   22
4   16   22   25   26
4   14   22   26   23
4   14   22   16   26
4   13   22   16   14
4   17   16   26   14
CELL_TYPES           40
10
10
10
10
10
10
10
10
10
10
10
10
10
10
10
10
10
10
10
10
10
10
10
10
10
10
10
10
10
10
10
10
10
10
10
10
10
10
10
10
POINT_DATA           27
 SCALARS predictedDisp11 float  1                  
LOOKUP_TABLE default
 0.00000E+00
 3.64674E-01
 4.59082E-01
 0.00000E+00
 3.20765E-01
 4.02628E-01
 0.00000E+00
 3.29002E-01
 2.51669E-01
 5.83525E-01
 6.73187E-01
 7.63764E-01
 5.62697E-01
 6.36446E-01
 6.00055E-01
 6.21916E-01
 5.71053E-01
 4.84006E-01
 1.25593E+00
 1.26187E+00
 1.25066E+00
 1.19382E+00
 1.18167E+00
 1.18068E+00
 1.14692E+00
 1.14173E+00
 1.08805E+00
 SCALARS predictedDisp12 float  1                  
LOOKUP_TABLE default
 0.00000E+00
 0.00000E+00
 0.00000E+00
 7.21097E-01
 6.74726E-01
 7.51968E-01
 7.31722E-01
 7.52339E-01
 6.61685E-01
 1.30960E+00
 1.26639E+00
 1.33352E+00
 1.33672E+00
 1.35150E+00
 1.30257E+00
 1.35142E+00
 1.20962E+00
 1.22342E+00
 2.66061E+00
 2.63245E+00
 2.60899E+00
 2.59811E+00
 2.52218E+00
 2.54470E+00
 2.48006E+00
 2.45502E+00
 2.39392E+00
 SCALARS predictedDisp13 float  1                  
LOOKUP_TABLE default
 0.00000E+00
 0.00000E+00
 0.00000E+00
 0.00000E+00
 0.00000E+00
 0.00000E+00
 0.00000E+00
 0.00000E+00
 0.00000E+00
-9.27023E-01
-5.59017E-01
-2.40319E-01
-1.36543E-01
 2.26342E-01
 5.45454E-01
 5.39396E-01
 9.00147E-01
 1.20189E+00
-8.40707E-01
-3.77601E-01
 3.30692E-02
 1.26940E-01
 5.67937E-01
 1.00553E+00
 1.03791E+00
 1.48722E+00
 1.94779E+00
 SCALARS predictedDisp14 float  1                  
LOOKUP_TABLE default
-3.76923E-01
-2.52182E-01
-1.98774E-01
-1.26313E-01
-4.63520E-02
 4.32564E-02
 6.71226E-02
 1.50747E-01
 2.78751E-01
-1.55435E-01
-1.18140E-01
-4.31302E-02
-3.23335E-02
 3.98969E-02
 1.06773E-01
 1.13109E-01
 1.95772E-01
 2.47896E-01
-4.25922E-02
-3.00106E-03
 4.87340E-02
 4.95628E-02
 1.05595E-01
 1.39473E-01
 1.62528E-01
 1.95890E-01
 2.60953E-01
 SCALARS NLP float  1                              
LOOKUP_TABLE default
 1.00000E+00
 1.00000E+00
 1.00000E+00
 1.00000E+00
 1.00000E+00
 1.00000E+00
 1.00000E+00
 1.00000E+00
 1.00000E+00
 1.00000E+00
 1.00000E+00
 1.00000E+00
 1.00000E+00
 1.00000E+00
 1.00000E+00
 1.00000E+00
 1.00000E+00
 1.00000E+00
 1.00000E+00
 1.00000E+00
 1.00000E+00
 1.00000E+00
 1.00000E+00
 1.00000E+00
 1.00000E+00
 1.00000E+00
 1.00000E+00
 SCALARS SM float  1                               
LOOKUP_TABLE default
 3.00000E+00
 3.00000E+00
 3.00000E+00
 3.00000E+00
 3.00000E+00
 3.00000E+00
 3.00000E+00
 3.00000E+00
 3.00000E+00
 3.00000E+00
 3.00000E+00
 3.00000E+00
 3.00000E+00
 3.00000E+00
 3.00000E+00
 3.00000E+00
 3.00000E+00
 3.00000E+00
 3.00000E+00
 3.00000E+00
 3.00000E+00
 3.00000E+00
 3.00000E+00
 3.00000E+00
 3.00000E+00
 3.00000E+00
 3.00000E+00
 SCALARS property3 float  1                        
LOOKUP_TABLE default
 0.00000E+00
 0.00000E+00
 0.00000E+00
 0.00000E+00
 0.00000E+00
 0.00000E+00
 0.00000E+00
 0.00000E+00
 0.00000E+00
 0.00000E+00
 0.00000E+00
 0.00000E+00
 0.00000E+00
 0.00000E+00
 0.00000E+00
 0.00000E+00
 0.00000E+00
 0.00000E+00
 1.10000E-01
 1.00000E-01
 1.10000E-01
 1.00000E-01
 1.10000E-01
 1.00000E-01
 1.10000E-01
 1.00000E-01
 1.10000E-01
 SCALARS property4 float  1                        
LOOKUP_TABLE default
 0.00000E+00
 0.00000E+00
 0.00000E+00
 0.00000E+00
 0.00000E+00
 0.00000E+00
 0.00000E+00
 0.00000E+00
 0.00000E+00
 0.00000E+00
 0.00000E+00
 0.00000E+00
 0.00000E+00
 0.00000E+00
 0.00000E+00
 0.00000E+00
 0.00000E+00
 0.00000E+00
 2.21000E-01
 2.50000E-01
 2.21000E-01
 2.50000E-01
 2.21000E-01
 2.50000E-01
 2.21000E-01
 2.50000E-01
 2.21000E-01
 SCALARS property5 float  1                        
LOOKUP_TABLE default
 0.00000E+00
 0.00000E+00
 0.00000E+00
 0.00000E+00
 0.00000E+00
 0.00000E+00
 0.00000E+00
 0.00000E+00
 0.00000E+00
 0.00000E+00
 0.00000E+00
 0.00000E+00
 0.00000E+00
 0.00000E+00
 0.00000E+00
 0.00000E+00
 0.00000E+00
 0.00000E+00
 3.30000E-01
 3.00000E-01
 3.30000E-01
 3.00000E-01
 3.30000E-01
 3.00000E-01
 3.30000E-01
 3.00000E-01
 3.30000E-01
