# vtk DataFile Version 2.0
Output of NLACE
ASCII
DATASET UNSTRUCTURED_GRID
POINTS           72 FLOAT
 1.217391E+00 -6.180602E+00  0.000000E+00
 4.869565E+00 -6.180602E+00  0.000000E+00
 8.521739E+00 -6.180602E+00  0.000000E+00
 1.217391E+01 -6.180602E+00  0.000000E+00
 1.582609E+01 -6.180602E+00  0.000000E+00
 1.947826E+01 -6.180602E+00  0.000000E+00
 2.313043E+01 -6.180602E+00  0.000000E+00
 2.678261E+01 -6.180602E+00  0.000000E+00
 1.217391E+00 -1.081605E+01  0.000000E+00
 4.869565E+00 -1.081605E+01  0.000000E+00
 8.521739E+00 -1.081605E+01  0.000000E+00
 1.217391E+01 -1.081605E+01  0.000000E+00
 1.582609E+01 -1.081605E+01  0.000000E+00
 1.947826E+01 -1.081605E+01  0.000000E+00
 2.313043E+01 -1.081605E+01  0.000000E+00
 2.678261E+01 -1.081605E+01  0.000000E+00
 1.217391E+00 -1.545151E+01  0.000000E+00
 4.869565E+00 -1.545151E+01  0.000000E+00
 8.521739E+00 -1.545151E+01  0.000000E+00
 1.217391E+01 -1.545151E+01  0.000000E+00
 1.582609E+01 -1.545151E+01  0.000000E+00
 1.947826E+01 -1.545151E+01  0.000000E+00
 2.313043E+01 -1.545151E+01  0.000000E+00
 2.678261E+01 -1.545151E+01  0.000000E+00
 1.217391E+00 -2.008696E+01  0.000000E+00
 4.869565E+00 -2.008696E+01  0.000000E+00
 8.521739E+00 -2.008696E+01  0.000000E+00
 1.217391E+01 -2.008696E+01  0.000000E+00
 1.582609E+01 -2.008696E+01  0.000000E+00
 1.947826E+01 -2.008696E+01  0.000000E+00
 2.313043E+01 -2.008696E+01  0.000000E+00
 2.678261E+01 -2.008696E+01  0.000000E+00
 1.217391E+00 -2.472241E+01  0.000000E+00
 4.869565E+00 -2.472241E+01  0.000000E+00
 8.521739E+00 -2.472241E+01  0.000000E+00
 1.217391E+01 -2.472241E+01  0.000000E+00
 1.582609E+01 -2.472241E+01  0.000000E+00
 1.947826E+01 -2.472241E+01  0.000000E+00
 2.313043E+01 -2.472241E+01  0.000000E+00
 2.678261E+01 -2.472241E+01  0.000000E+00
 1.217391E+00 -2.935786E+01  0.000000E+00
 4.869565E+00 -2.935786E+01  0.000000E+00
 8.521739E+00 -2.935786E+01  0.000000E+00
 1.217391E+01 -2.935786E+01  0.000000E+00
 1.582609E+01 -2.935786E+01  0.000000E+00
 1.947826E+01 -2.935786E+01  0.000000E+00
 2.313043E+01 -2.935786E+01  0.000000E+00
 2.678261E+01 -2.935786E+01  0.000000E+00
 1.217391E+00 -3.399331E+01  0.000000E+00
 4.869565E+00 -3.399331E+01  0.000000E+00
 8.521739E+00 -3.399331E+01  0.000000E+00
 1.217391E+01 -3.399331E+01  0.000000E+00
 1.582609E+01 -3.399331E+01  0.000000E+00
 1.947826E+01 -3.399331E+01  0.000000E+00
 2.313043E+01 -3.399331E+01  0.000000E+00
 2.678261E+01 -3.399331E+01  0.000000E+00
 1.217391E+00 -3.862876E+01  0.000000E+00
 4.869565E+00 -3.862876E+01  0.000000E+00
 8.521739E+00 -3.862876E+01  0.000000E+00
 1.217391E+01 -3.862876E+01  0.000000E+00
 1.582609E+01 -3.862876E+01  0.000000E+00
 1.947826E+01 -3.862876E+01  0.000000E+00
 2.313043E+01 -3.862876E+01  0.000000E+00
 2.678261E+01 -3.862876E+01  0.000000E+00
 1.217391E+00 -4.326421E+01  0.000000E+00
 4.869565E+00 -4.326421E+01  0.000000E+00
 8.521739E+00 -4.326421E+01  0.000000E+00
 1.217391E+01 -4.326421E+01  0.000000E+00
 1.582609E+01 -4.326421E+01  0.000000E+00
 1.947826E+01 -4.326421E+01  0.000000E+00
 2.313043E+01 -4.326421E+01  0.000000E+00
 2.678261E+01 -4.326421E+01  0.000000E+00
CELLS           56         280
4    8    9    1    0
4    9   10    2    1
4   10   11    3    2
4   11   12    4    3
4   12   13    5    4
4   13   14    6    5
4   14   15    7    6
4   16   17    9    8
4   17   18   10    9
4   18   19   11   10
4   19   20   12   11
4   20   21   13   12
4   21   22   14   13
4   22   23   15   14
4   24   25   17   16
4   25   26   18   17
4   26   27   19   18
4   27   28   20   19
4   28   29   21   20
4   29   30   22   21
4   30   31   23   22
4   32   33   25   24
4   33   34   26   25
4   34   35   27   26
4   35   36   28   27
4   36   37   29   28
4   37   38   30   29
4   38   39   31   30
4   40   41   33   32
4   41   42   34   33
4   42   43   35   34
4   43   44   36   35
4   44   45   37   36
4   45   46   38   37
4   46   47   39   38
4   48   49   41   40
4   49   50   42   41
4   50   51   43   42
4   51   52   44   43
4   52   53   45   44
4   53   54   46   45
4   54   55   47   46
4   56   57   49   48
4   57   58   50   49
4   58   59   51   50
4   59   60   52   51
4   60   61   53   52
4   61   62   54   53
4   62   63   55   54
4   64   65   57   56
4   65   66   58   57
4   66   67   59   58
4   67   68   60   59
4   68   69   61   60
4   69   70   62   61
4   70   71   63   62
CELL_TYPES           56
9
9
9
9
9
9
9
9
9
9
9
9
9
9
9
9
9
9
9
9
9
9
9
9
9
9
9
9
9
9
9
9
9
9
9
9
9
9
9
9
9
9
9
9
9
9
9
9
9
9
9
9
9
9
9
9
POINT_DATA           72
 SCALARS measuredDisp11 float  1                   
LOOKUP_TABLE default
-2.67989E-01
-2.46973E-01
-1.95923E-01
-1.74907E-01
-1.54674E-01
-1.33637E-01
-1.00305E-01
-7.82600E-02
-2.53702E-01
-2.67888E-01
-2.08877E-01
-1.65147E-01
-1.52875E-01
-1.12623E-01
-9.26820E-02
-6.43330E-02
-2.60484E-01
-2.48154E-01
-2.16792E-01
-1.72122E-01
-1.40214E-01
-9.11570E-02
-7.78130E-02
-5.73260E-02
-2.55154E-01
-2.24561E-01
-1.96736E-01
-1.62661E-01
-1.23483E-01
-9.87930E-02
-7.31570E-02
-2.42640E-02
-2.55067E-01
-2.26025E-01
-1.76470E-01
-1.39220E-01
-1.26990E-01
-1.07579E-01
-4.15490E-02
-2.23700E-02
-2.51241E-01
-2.20382E-01
-1.36901E-01
-1.35583E-01
-1.43811E-01
-1.15614E-01
-4.81670E-02
-6.79350E-02
-2.26165E-01
-1.69149E-01
-1.75962E-01
-1.15833E-01
-8.50490E-02
-4.70220E-02
-4.42840E-02
 4.42900E-03
-2.20632E-01
-1.80898E-01
-1.95286E-01
-1.48238E-01
-4.62980E-02
-4.27460E-02
-4.78090E-02
 7.52890E-02
-1.59363E-01
-1.86753E-01
-1.51910E-01
-9.99910E-02
-8.52860E-02
 4.74000E-04
 2.29850E-02
-9.93000E-03
 SCALARS measuredDisp12 float  1                   
LOOKUP_TABLE default
 7.62760E-02
 9.05160E-02
 9.65400E-02
 9.75210E-02
 1.07007E-01
 1.16125E-01
 1.24220E-01
 1.33036E-01
 1.50347E-01
 1.56859E-01
 1.71054E-01
 1.74910E-01
 1.85429E-01
 1.83154E-01
 1.98783E-01
 2.03755E-01
 2.27751E-01
 2.31966E-01
 2.41174E-01
 2.51949E-01
 2.60039E-01
 2.74770E-01
 2.74524E-01
 2.83302E-01
 3.04526E-01
 3.06903E-01
 3.15827E-01
 3.31760E-01
 3.47303E-01
 3.48494E-01
 3.54381E-01
 3.57426E-01
 3.77952E-01
 3.86016E-01
 4.01900E-01
 4.25285E-01
 4.46234E-01
 4.34334E-01
 4.33420E-01
 4.41244E-01
 4.59827E-01
 4.65554E-01
 4.82622E-01
 5.09756E-01
 5.18230E-01
 5.17164E-01
 5.18083E-01
 5.24532E-01
 5.42429E-01
 5.52108E-01
 5.60101E-01
 5.57543E-01
 5.70588E-01
 5.74858E-01
 5.95674E-01
 6.06231E-01
 6.29911E-01
 6.39975E-01
 6.47903E-01
 6.32560E-01
 6.37402E-01
 6.67059E-01
 6.83297E-01
 6.95588E-01
 7.16925E-01
 7.24626E-01
 7.38487E-01
 7.32637E-01
 7.38117E-01
 7.58368E-01
 7.63826E-01
 7.79255E-01
 SCALARS predictedDisp11 float  1                  
LOOKUP_TABLE default
-4.12476E-01
-3.81612E-01
-3.48747E-01
-3.15578E-01
-2.82474E-01
-2.49496E-01
-2.16874E-01
-1.87118E-01
-3.99984E-01
-3.70087E-01
-3.39525E-01
-3.06480E-01
-2.72360E-01
-2.39155E-01
-2.07167E-01
-1.76331E-01
-3.91012E-01
-3.60159E-01
-3.28800E-01
-2.96094E-01
-2.62628E-01
-2.29296E-01
-1.96786E-01
-1.65490E-01
-3.81984E-01
-3.51154E-01
-3.18658E-01
-2.85625E-01
-2.52333E-01
-2.19168E-01
-1.86301E-01
-1.54357E-01
-3.71513E-01
-3.39931E-01
-3.07290E-01
-2.74398E-01
-2.41513E-01
-2.08764E-01
-1.76396E-01
-1.43347E-01
-3.58674E-01
-3.25962E-01
-2.93765E-01
-2.61846E-01
-2.30299E-01
-1.98516E-01
-1.65961E-01
-1.33133E-01
-3.41659E-01
-3.08654E-01
-2.76894E-01
-2.47729E-01
-2.19678E-01
-1.91030E-01
-1.60010E-01
-1.27073E-01
-3.16548E-01
-2.82185E-01
-2.54518E-01
-2.31068E-01
-2.11396E-01
-1.89042E-01
-1.62666E-01
-1.29085E-01
-2.52689E-01
-2.40478E-01
-2.28268E-01
-2.16058E-01
-2.03848E-01
-1.91638E-01
-1.79427E-01
-1.67217E-01
 SCALARS predictedDisp12 float  1                  
LOOKUP_TABLE default
 7.62760E-02
 9.05160E-02
 9.65400E-02
 9.75210E-02
 1.07007E-01
 1.16125E-01
 1.24220E-01
 1.33036E-01
 1.50347E-01
 1.64921E-01
 1.73921E-01
 1.80358E-01
 1.87919E-01
 1.95553E-01
 2.01974E-01
 2.03755E-01
 2.27751E-01
 2.40801E-01
 2.52306E-01
 2.61665E-01
 2.69417E-01
 2.75768E-01
 2.79578E-01
 2.83302E-01
 3.04526E-01
 3.18697E-01
 3.32249E-01
 3.42979E-01
 3.51168E-01
 3.56822E-01
 3.60109E-01
 3.57426E-01
 3.77952E-01
 3.98816E-01
 4.13593E-01
 4.25120E-01
 4.33455E-01
 4.38828E-01
 4.41088E-01
 4.41244E-01
 4.59827E-01
 4.79966E-01
 4.96031E-01
 5.07679E-01
 5.16020E-01
 5.21437E-01
 5.23806E-01
 5.24532E-01
 5.42429E-01
 5.63831E-01
 5.78866E-01
 5.89164E-01
 5.97208E-01
 6.03795E-01
 6.07826E-01
 6.06231E-01
 6.29911E-01
 6.49414E-01
 6.60532E-01
 6.65876E-01
 6.72992E-01
 6.83477E-01
 6.91277E-01
 6.95588E-01
 7.16925E-01
 7.24626E-01
 7.38487E-01
 7.32637E-01
 7.38117E-01
 7.58368E-01
 7.63826E-01
 7.79255E-01
 SCALARS dual11 float  1                           
LOOKUP_TABLE default
 1.95282E-01
 1.69557E-01
 1.06892E-01
 2.99718E-02
-4.59522E-02
-1.13370E-01
-1.61644E-01
-1.78446E-01
 1.78294E-01
 1.55525E-01
 9.71250E-02
 2.45762E-02
-4.56093E-02
-1.03939E-01
-1.44541E-01
-1.59909E-01
 1.34931E-01
 1.17423E-01
 7.06068E-02
 1.39473E-02
-3.61242E-02
-7.63742E-02
-1.06368E-01
-1.18648E-01
 7.96866E-02
 6.80797E-02
 3.87543E-02
 7.01555E-03
-1.78223E-02
-4.20538E-02
-6.55119E-02
-7.52107E-02
 2.39796E-02
 2.24026E-02
 1.68047E-02
 9.07335E-03
-2.74705E-03
-1.80761E-02
-3.06905E-02
-3.55313E-02
-3.98530E-02
-2.78305E-02
-3.99754E-03
 1.05849E-02
 9.04330E-03
 5.70701E-03
 1.00702E-02
 1.39912E-02
-1.16987E-01
-9.67659E-02
-5.05122E-02
-6.62778E-03
 2.33874E-02
 5.24265E-02
 8.07126E-02
 9.28242E-02
-1.48241E-01
-1.31648E-01
-8.85611E-02
-2.95087E-02
 3.36212E-02
 8.85795E-02
 1.25855E-01
 1.38552E-01
 0.00000E+00
 0.00000E+00
 0.00000E+00
 0.00000E+00
 0.00000E+00
 0.00000E+00
 0.00000E+00
 0.00000E+00
 SCALARS dual12 float  1                           
LOOKUP_TABLE default
 0.00000E+00
 0.00000E+00
 0.00000E+00
 0.00000E+00
 0.00000E+00
 0.00000E+00
 0.00000E+00
 0.00000E+00
 0.00000E+00
-9.13851E-02
-1.35859E-01
-1.48219E-01
-1.35635E-01
-1.14776E-01
-6.35422E-02
 0.00000E+00
 0.00000E+00
-1.64716E-01
-2.55544E-01
-2.70221E-01
-2.40810E-01
-1.88479E-01
-1.11550E-01
 0.00000E+00
 0.00000E+00
-2.16960E-01
-3.35499E-01
-3.39947E-01
-2.91881E-01
-2.40959E-01
-1.46753E-01
 0.00000E+00
 0.00000E+00
-2.41905E-01
-3.66109E-01
-3.61010E-01
-3.10020E-01
-2.71902E-01
-1.70976E-01
 0.00000E+00
 0.00000E+00
-2.32835E-01
-3.60756E-01
-3.75806E-01
-3.45541E-01
-2.96072E-01
-1.78181E-01
 0.00000E+00
 0.00000E+00
-1.81388E-01
-3.04181E-01
-3.67247E-01
-3.55221E-01
-2.88598E-01
-1.59037E-01
 0.00000E+00
 0.00000E+00
-9.56894E-02
-1.68527E-01
-2.30317E-01
-2.30964E-01
-1.71351E-01
-9.01686E-02
 0.00000E+00
 0.00000E+00
 0.00000E+00
 0.00000E+00
 0.00000E+00
 0.00000E+00
 0.00000E+00
 0.00000E+00
 0.00000E+00
 SCALARS NLP float  1                              
LOOKUP_TABLE default
 0.00000E+00
 0.00000E+00
 0.00000E+00
 0.00000E+00
 0.00000E+00
 0.00000E+00
 0.00000E+00
 0.00000E+00
 0.00000E+00
 0.00000E+00
 0.00000E+00
 0.00000E+00
 0.00000E+00
 0.00000E+00
 0.00000E+00
 0.00000E+00
 0.00000E+00
 0.00000E+00
 0.00000E+00
 0.00000E+00
 0.00000E+00
 0.00000E+00
 0.00000E+00
 0.00000E+00
 0.00000E+00
 0.00000E+00
 0.00000E+00
 0.00000E+00
 0.00000E+00
 0.00000E+00
 0.00000E+00
 0.00000E+00
 0.00000E+00
 0.00000E+00
 0.00000E+00
 0.00000E+00
 0.00000E+00
 0.00000E+00
 0.00000E+00
 0.00000E+00
 0.00000E+00
 0.00000E+00
 0.00000E+00
 0.00000E+00
 0.00000E+00
 0.00000E+00
 0.00000E+00
 0.00000E+00
 0.00000E+00
 0.00000E+00
 0.00000E+00
 0.00000E+00
 0.00000E+00
 0.00000E+00
 0.00000E+00
 0.00000E+00
 0.00000E+00
 0.00000E+00
 0.00000E+00
 0.00000E+00
 0.00000E+00
 0.00000E+00
 0.00000E+00
 0.00000E+00
 0.00000E+00
 0.00000E+00
 0.00000E+00
 0.00000E+00
 0.00000E+00
 0.00000E+00
 0.00000E+00
 0.00000E+00
 SCALARS SM float  1                               
LOOKUP_TABLE default
 1.05000E+00
 1.05000E+00
 1.05000E+00
 1.05000E+00
 1.05000E+00
 1.05000E+00
 1.05000E+00
 1.05000E+00
 1.05000E+00
 1.05000E+00
 1.05000E+00
 1.05000E+00
 1.05000E+00
 1.05000E+00
 1.05000E+00
 1.05000E+00
 1.05000E+00
 1.05000E+00
 1.05000E+00
 1.05000E+00
 1.05000E+00
 1.05000E+00
 1.05000E+00
 1.05000E+00
 1.05000E+00
 1.05000E+00
 1.05000E+00
 1.05000E+00
 1.05000E+00
 1.05000E+00
 1.05000E+00
 1.05000E+00
 1.05000E+00
 1.05000E+00
 1.05000E+00
 1.05000E+00
 1.05000E+00
 1.05000E+00
 1.05000E+00
 1.05000E+00
 1.05000E+00
 1.05000E+00
 1.05000E+00
 1.05000E+00
 1.05000E+00
 1.05000E+00
 1.05000E+00
 1.05000E+00
 1.05000E+00
 1.05000E+00
 1.05000E+00
 1.05000E+00
 1.05000E+00
 1.05000E+00
 1.05000E+00
 1.05000E+00
 1.05000E+00
 1.05000E+00
 1.05000E+00
 1.05000E+00
 1.05000E+00
 1.05000E+00
 1.05000E+00
 1.05000E+00
 1.05000E+00
 1.05000E+00
 1.05000E+00
 1.05000E+00
 1.05000E+00
 1.05000E+00
 1.05000E+00
 1.05000E+00
 SCALARS gradient1 float  1                        
LOOKUP_TABLE default
 0.00000E+00
 0.00000E+00
 0.00000E+00
 0.00000E+00
 0.00000E+00
 0.00000E+00
 0.00000E+00
 0.00000E+00
 0.00000E+00
 0.00000E+00
 0.00000E+00
 0.00000E+00
 0.00000E+00
 0.00000E+00
 0.00000E+00
 0.00000E+00
 0.00000E+00
 0.00000E+00
 0.00000E+00
 0.00000E+00
 0.00000E+00
 0.00000E+00
 0.00000E+00
 0.00000E+00
 0.00000E+00
 0.00000E+00
 0.00000E+00
 0.00000E+00
 0.00000E+00
 0.00000E+00
 0.00000E+00
 0.00000E+00
 0.00000E+00
 0.00000E+00
 0.00000E+00
 0.00000E+00
 0.00000E+00
 0.00000E+00
 0.00000E+00
 0.00000E+00
 0.00000E+00
 0.00000E+00
 0.00000E+00
 0.00000E+00
 0.00000E+00
 0.00000E+00
 0.00000E+00
 0.00000E+00
 0.00000E+00
 0.00000E+00
 0.00000E+00
 0.00000E+00
 0.00000E+00
 0.00000E+00
 0.00000E+00
 0.00000E+00
 0.00000E+00
 0.00000E+00
 0.00000E+00
 0.00000E+00
 0.00000E+00
 0.00000E+00
 0.00000E+00
 0.00000E+00
 0.00000E+00
 0.00000E+00
 0.00000E+00
 0.00000E+00
 0.00000E+00
 0.00000E+00
 0.00000E+00
 0.00000E+00
 SCALARS gradient2 float  1                        
LOOKUP_TABLE default
-1.37597E-03
-7.48633E-03
-1.20888E-02
-1.39243E-02
-1.28860E-02
-1.03403E-02
-5.67764E-03
-9.57662E-04
-2.67528E-03
-1.39168E-02
-2.25367E-02
-2.53256E-02
-2.28151E-02
-1.74797E-02
-9.94889E-03
-1.82409E-03
-2.35854E-03
-1.12785E-02
-1.75293E-02
-1.79633E-02
-1.52172E-02
-1.20067E-02
-7.61794E-03
-1.60780E-03
-1.93575E-03
-7.51866E-03
-9.90887E-03
-8.73300E-03
-7.36098E-03
-7.69925E-03
-6.01436E-03
-1.64101E-03
-1.41119E-03
-2.80208E-03
-2.71580E-03
-3.63167E-03
-5.05419E-03
-5.30086E-03
-3.92703E-03
-1.24035E-03
 1.17572E-04
 3.94271E-03
 4.69977E-03
-2.55729E-04
-3.47152E-03
-1.95574E-03
-2.39358E-04
-3.19427E-04
 2.00032E-03
 1.21255E-02
 1.70906E-02
 1.35992E-02
 1.08927E-02
 1.10888E-02
 7.76080E-03
 1.34566E-03
 4.60751E-03
 1.88332E-02
 2.92623E-02
 3.16540E-02
 3.02913E-02
 2.68705E-02
 1.68959E-02
 4.35538E-03
 3.12300E-03
 1.10414E-02
 1.75813E-02
 2.02733E-02
 1.98997E-02
 1.70488E-02
 1.05179E-02
 3.05615E-03
CELL_DATA          56
SCALARS elemDataMatch  float  1
LOOKUP_TABLE default
 6.11316E-05
 9.06017E-05
 5.03367E-05
 4.65078E-05
 1.79454E-04
 1.91379E-04
 9.57969E-06
 2.01548E-04
 5.24223E-04
 4.78852E-04
 4.10881E-04
 3.61367E-04
 2.78857E-04
 4.87716E-05
 3.02242E-04
 1.24904E-03
 1.26066E-03
 6.34209E-04
 2.82474E-04
 2.28193E-04
 8.21127E-05
 4.26893E-04
 1.47637E-03
 9.11408E-04
 2.12901E-04
 1.74991E-04
 3.66305E-04
 1.27471E-04
 5.22942E-04
 1.45059E-03
 4.09102E-04
 2.08093E-04
 1.45722E-04
 2.64517E-04
 1.27380E-04
 4.83494E-04
 1.81016E-03
 2.33260E-03
 2.23562E-03
 2.27577E-03
 1.61213E-03
 2.35104E-04
 3.17119E-04
 1.49310E-03
 5.11489E-03
 8.57732E-03
 6.20065E-03
 2.43422E-03
 2.89971E-04
 8.37980E-05
 3.45917E-04
 1.58970E-03
 3.35050E-03
 1.99442E-03
 4.36636E-04
 5.98868E-05
SCALARS elemRegul  float  1
LOOKUP_TABLE default
 8.46473E-09
 8.46473E-09
 8.46472E-09
 8.46475E-09
 8.46472E-09
 8.46472E-09
 8.46475E-09
 8.46475E-09
 8.46475E-09
 8.46475E-09
 8.46477E-09
 8.46474E-09
 8.46474E-09
 8.46477E-09
 8.46473E-09
 8.46473E-09
 8.46473E-09
 8.46475E-09
 8.46473E-09
 8.46473E-09
 8.46475E-09
 8.46473E-09
 8.46473E-09
 8.46473E-09
 8.46475E-09
 8.46473E-09
 8.46473E-09
 8.46475E-09
 8.46473E-09
 8.46473E-09
 8.46473E-09
 8.46475E-09
 8.46473E-09
 8.46473E-09
 8.46475E-09
 8.46473E-09
 8.46473E-09
 8.46473E-09
 8.46475E-09
 8.46473E-09
 8.46473E-09
 8.46475E-09
 8.46473E-09
 8.46473E-09
 8.46473E-09
 8.46475E-09
 8.46473E-09
 8.46473E-09
 8.46475E-09
 8.46473E-09
 8.46473E-09
 8.46473E-09
 8.46475E-09
 8.46473E-09
 8.46473E-09
 8.46475E-09
SCALARS l2grad2  float  1
LOOKUP_TABLE default
 3.85494E-18
 5.01142E-18
 6.93889E-18
 4.62593E-18
 6.93889E-18
 1.34923E-17
 9.25186E-18
 3.08395E-18
 4.24044E-18
 7.32439E-18
 3.46945E-18
 5.39692E-18
 8.09538E-18
 4.62593E-18
 7.70988E-19
 4.62593E-18
 5.01142E-18
 1.15648E-18
 8.86636E-18
 7.70988E-18
 1.27213E-17
 3.08395E-18
 4.24044E-18
 5.39692E-18
 3.46945E-18
 6.16791E-18
 1.07938E-17
 7.32439E-18
 3.46945E-18
 5.78241E-18
 7.70988E-18
 3.46945E-18
 7.70988E-18
 9.25186E-18
 5.78241E-18
 1.92747E-18
 4.62593E-18
 1.07938E-17
 3.46945E-18
 9.25186E-18
 7.70988E-18
 1.11793E-17
 3.08395E-18
 4.24044E-18
 5.39692E-18
 3.46945E-18
 6.16791E-18
 1.07938E-17
 7.32439E-18
 3.46945E-18
 5.78241E-18
 7.70988E-18
 3.46945E-18
 7.70988E-18
 9.25186E-18
 8.86636E-18
