# vtk DataFile Version 2.0
Output of NLACE
ASCII
DATASET UNSTRUCTURED_GRID
POINTS           72 FLOAT
 1.217391E+00 -6.180602E+00  0.000000E+00
 4.869565E+00 -6.180602E+00  0.000000E+00
 8.521739E+00 -6.180602E+00  0.000000E+00
 1.217391E+01 -6.180602E+00  0.000000E+00
 1.582609E+01 -6.180602E+00  0.000000E+00
 1.947826E+01 -6.180602E+00  0.000000E+00
 2.313043E+01 -6.180602E+00  0.000000E+00
 2.678261E+01 -6.180602E+00  0.000000E+00
 1.217391E+00 -1.081605E+01  0.000000E+00
 4.869565E+00 -1.081605E+01  0.000000E+00
 8.521739E+00 -1.081605E+01  0.000000E+00
 1.217391E+01 -1.081605E+01  0.000000E+00
 1.582609E+01 -1.081605E+01  0.000000E+00
 1.947826E+01 -1.081605E+01  0.000000E+00
 2.313043E+01 -1.081605E+01  0.000000E+00
 2.678261E+01 -1.081605E+01  0.000000E+00
 1.217391E+00 -1.545151E+01  0.000000E+00
 4.869565E+00 -1.545151E+01  0.000000E+00
 8.521739E+00 -1.545151E+01  0.000000E+00
 1.217391E+01 -1.545151E+01  0.000000E+00
 1.582609E+01 -1.545151E+01  0.000000E+00
 1.947826E+01 -1.545151E+01  0.000000E+00
 2.313043E+01 -1.545151E+01  0.000000E+00
 2.678261E+01 -1.545151E+01  0.000000E+00
 1.217391E+00 -2.008696E+01  0.000000E+00
 4.869565E+00 -2.008696E+01  0.000000E+00
 8.521739E+00 -2.008696E+01  0.000000E+00
 1.217391E+01 -2.008696E+01  0.000000E+00
 1.582609E+01 -2.008696E+01  0.000000E+00
 1.947826E+01 -2.008696E+01  0.000000E+00
 2.313043E+01 -2.008696E+01  0.000000E+00
 2.678261E+01 -2.008696E+01  0.000000E+00
 1.217391E+00 -2.472241E+01  0.000000E+00
 4.869565E+00 -2.472241E+01  0.000000E+00
 8.521739E+00 -2.472241E+01  0.000000E+00
 1.217391E+01 -2.472241E+01  0.000000E+00
 1.582609E+01 -2.472241E+01  0.000000E+00
 1.947826E+01 -2.472241E+01  0.000000E+00
 2.313043E+01 -2.472241E+01  0.000000E+00
 2.678261E+01 -2.472241E+01  0.000000E+00
 1.217391E+00 -2.935786E+01  0.000000E+00
 4.869565E+00 -2.935786E+01  0.000000E+00
 8.521739E+00 -2.935786E+01  0.000000E+00
 1.217391E+01 -2.935786E+01  0.000000E+00
 1.582609E+01 -2.935786E+01  0.000000E+00
 1.947826E+01 -2.935786E+01  0.000000E+00
 2.313043E+01 -2.935786E+01  0.000000E+00
 2.678261E+01 -2.935786E+01  0.000000E+00
 1.217391E+00 -3.399331E+01  0.000000E+00
 4.869565E+00 -3.399331E+01  0.000000E+00
 8.521739E+00 -3.399331E+01  0.000000E+00
 1.217391E+01 -3.399331E+01  0.000000E+00
 1.582609E+01 -3.399331E+01  0.000000E+00
 1.947826E+01 -3.399331E+01  0.000000E+00
 2.313043E+01 -3.399331E+01  0.000000E+00
 2.678261E+01 -3.399331E+01  0.000000E+00
 1.217391E+00 -3.862876E+01  0.000000E+00
 4.869565E+00 -3.862876E+01  0.000000E+00
 8.521739E+00 -3.862876E+01  0.000000E+00
 1.217391E+01 -3.862876E+01  0.000000E+00
 1.582609E+01 -3.862876E+01  0.000000E+00
 1.947826E+01 -3.862876E+01  0.000000E+00
 2.313043E+01 -3.862876E+01  0.000000E+00
 2.678261E+01 -3.862876E+01  0.000000E+00
 1.217391E+00 -4.326421E+01  0.000000E+00
 4.869565E+00 -4.326421E+01  0.000000E+00
 8.521739E+00 -4.326421E+01  0.000000E+00
 1.217391E+01 -4.326421E+01  0.000000E+00
 1.582609E+01 -4.326421E+01  0.000000E+00
 1.947826E+01 -4.326421E+01  0.000000E+00
 2.313043E+01 -4.326421E+01  0.000000E+00
 2.678261E+01 -4.326421E+01  0.000000E+00
CELLS           56         280
4    8    9    1    0
4    9   10    2    1
4   10   11    3    2
4   11   12    4    3
4   12   13    5    4
4   13   14    6    5
4   14   15    7    6
4   16   17    9    8
4   17   18   10    9
4   18   19   11   10
4   19   20   12   11
4   20   21   13   12
4   21   22   14   13
4   22   23   15   14
4   24   25   17   16
4   25   26   18   17
4   26   27   19   18
4   27   28   20   19
4   28   29   21   20
4   29   30   22   21
4   30   31   23   22
4   32   33   25   24
4   33   34   26   25
4   34   35   27   26
4   35   36   28   27
4   36   37   29   28
4   37   38   30   29
4   38   39   31   30
4   40   41   33   32
4   41   42   34   33
4   42   43   35   34
4   43   44   36   35
4   44   45   37   36
4   45   46   38   37
4   46   47   39   38
4   48   49   41   40
4   49   50   42   41
4   50   51   43   42
4   51   52   44   43
4   52   53   45   44
4   53   54   46   45
4   54   55   47   46
4   56   57   49   48
4   57   58   50   49
4   58   59   51   50
4   59   60   52   51
4   60   61   53   52
4   61   62   54   53
4   62   63   55   54
4   64   65   57   56
4   65   66   58   57
4   66   67   59   58
4   67   68   60   59
4   68   69   61   60
4   69   70   62   61
4   70   71   63   62
CELL_TYPES           56
9
9
9
9
9
9
9
9
9
9
9
9
9
9
9
9
9
9
9
9
9
9
9
9
9
9
9
9
9
9
9
9
9
9
9
9
9
9
9
9
9
9
9
9
9
9
9
9
9
9
9
9
9
9
9
9
POINT_DATA           72
 SCALARS measuredDisp11 float  1                   
LOOKUP_TABLE default
-2.67989E-01
-2.46973E-01
-1.95923E-01
-1.74907E-01
-1.54674E-01
-1.33637E-01
-1.00305E-01
-7.82600E-02
-2.53702E-01
-2.67888E-01
-2.08877E-01
-1.65147E-01
-1.52875E-01
-1.12623E-01
-9.26820E-02
-6.43330E-02
-2.60484E-01
-2.48154E-01
-2.16792E-01
-1.72122E-01
-1.40214E-01
-9.11570E-02
-7.78130E-02
-5.73260E-02
-2.55154E-01
-2.24561E-01
-1.96736E-01
-1.62661E-01
-1.23483E-01
-9.87930E-02
-7.31570E-02
-2.42640E-02
-2.55067E-01
-2.26025E-01
-1.76470E-01
-1.39220E-01
-1.26990E-01
-1.07579E-01
-4.15490E-02
-2.23700E-02
-2.51241E-01
-2.20382E-01
-1.36901E-01
-1.35583E-01
-1.43811E-01
-1.15614E-01
-4.81670E-02
-6.79350E-02
-2.26165E-01
-1.69149E-01
-1.75962E-01
-1.15833E-01
-8.50490E-02
-4.70220E-02
-4.42840E-02
 4.42900E-03
-2.20632E-01
-1.80898E-01
-1.95286E-01
-1.48238E-01
-4.62980E-02
-4.27460E-02
-4.78090E-02
 7.52890E-02
-1.59363E-01
-1.86753E-01
-1.51910E-01
-9.99910E-02
-8.52860E-02
 4.74000E-04
 2.29850E-02
-9.93000E-03
 SCALARS measuredDisp12 float  1                   
LOOKUP_TABLE default
 7.62760E-02
 9.05160E-02
 9.65400E-02
 9.75210E-02
 1.07007E-01
 1.16125E-01
 1.24220E-01
 1.33036E-01
 1.50347E-01
 1.56859E-01
 1.71054E-01
 1.74910E-01
 1.85429E-01
 1.83154E-01
 1.98783E-01
 2.03755E-01
 2.27751E-01
 2.31966E-01
 2.41174E-01
 2.51949E-01
 2.60039E-01
 2.74770E-01
 2.74524E-01
 2.83302E-01
 3.04526E-01
 3.06903E-01
 3.15827E-01
 3.31760E-01
 3.47303E-01
 3.48494E-01
 3.54381E-01
 3.57426E-01
 3.77952E-01
 3.86016E-01
 4.01900E-01
 4.25285E-01
 4.46234E-01
 4.34334E-01
 4.33420E-01
 4.41244E-01
 4.59827E-01
 4.65554E-01
 4.82622E-01
 5.09756E-01
 5.18230E-01
 5.17164E-01
 5.18083E-01
 5.24532E-01
 5.42429E-01
 5.52108E-01
 5.60101E-01
 5.57543E-01
 5.70588E-01
 5.74858E-01
 5.95674E-01
 6.06231E-01
 6.29911E-01
 6.39975E-01
 6.47903E-01
 6.32560E-01
 6.37402E-01
 6.67059E-01
 6.83297E-01
 6.95588E-01
 7.16925E-01
 7.24626E-01
 7.38487E-01
 7.32637E-01
 7.38117E-01
 7.58368E-01
 7.63826E-01
 7.79255E-01
 SCALARS predictedDisp11 float  1                  
LOOKUP_TABLE default
-4.03827E-01
-3.75130E-01
-3.45413E-01
-3.13902E-01
-2.82231E-01
-2.53088E-01
-2.24531E-01
-1.95732E-01
-3.92599E-01
-3.64040E-01
-3.36318E-01
-3.06081E-01
-2.74489E-01
-2.42733E-01
-2.11515E-01
-1.81251E-01
-3.86727E-01
-3.56175E-01
-3.26847E-01
-2.96932E-01
-2.64690E-01
-2.30608E-01
-1.97710E-01
-1.66869E-01
-3.80945E-01
-3.51063E-01
-3.20397E-01
-2.87388E-01
-2.50824E-01
-2.16291E-01
-1.85148E-01
-1.54156E-01
-3.69565E-01
-3.38929E-01
-3.07690E-01
-2.74190E-01
-2.40089E-01
-2.08192E-01
-1.77265E-01
-1.44626E-01
-3.52328E-01
-3.18470E-01
-2.84870E-01
-2.55954E-01
-2.31766E-01
-2.06490E-01
-1.75880E-01
-1.42885E-01
-3.39141E-01
-3.04470E-01
-2.69578E-01
-2.43233E-01
-2.22001E-01
-1.97696E-01
-1.66475E-01
-1.33085E-01
-3.23974E-01
-2.89181E-01
-2.60744E-01
-2.34665E-01
-2.09875E-01
-1.83682E-01
-1.55701E-01
-1.21647E-01
-2.52689E-01
-2.40478E-01
-2.28268E-01
-2.16058E-01
-2.03848E-01
-1.91638E-01
-1.79427E-01
-1.67217E-01
 SCALARS predictedDisp12 float  1                  
LOOKUP_TABLE default
 7.62760E-02
 9.05160E-02
 9.65400E-02
 9.75210E-02
 1.07007E-01
 1.16125E-01
 1.24220E-01
 1.33036E-01
 1.50347E-01
 1.58304E-01
 1.69589E-01
 1.76311E-01
 1.82980E-01
 1.86167E-01
 1.97443E-01
 2.03755E-01
 2.27751E-01
 2.31366E-01
 2.40926E-01
 2.52097E-01
 2.60886E-01
 2.72653E-01
 2.75507E-01
 2.83302E-01
 3.04526E-01
 3.07716E-01
 3.16075E-01
 3.31725E-01
 3.45253E-01
 3.50837E-01
 3.52757E-01
 3.57426E-01
 3.77952E-01
 3.85705E-01
 4.00935E-01
 4.28235E-01
 4.45832E-01
 4.36566E-01
 4.33772E-01
 4.41244E-01
 4.59827E-01
 4.66599E-01
 4.82726E-01
 5.06728E-01
 5.16492E-01
 5.14380E-01
 5.17215E-01
 5.24532E-01
 5.42429E-01
 5.51849E-01
 5.59040E-01
 5.62863E-01
 5.69412E-01
 5.80076E-01
 5.95569E-01
 6.06231E-01
 6.29911E-01
 6.41678E-01
 6.46737E-01
 6.31820E-01
 6.36931E-01
 6.65385E-01
 6.82869E-01
 6.95588E-01
 7.16925E-01
 7.24626E-01
 7.38487E-01
 7.32637E-01
 7.38117E-01
 7.58368E-01
 7.63826E-01
 7.79255E-01
 SCALARS dual11 float  1                           
LOOKUP_TABLE default
 3.17578E-04
-5.21584E-05
-1.55161E-04
-1.14213E-04
 2.03992E-04
 4.64553E-05
-3.85046E-04
-1.33212E-04
 1.43576E-04
 1.07694E-04
 4.15154E-05
-4.21990E-05
-1.61116E-04
-9.34895E-05
-1.13392E-04
-2.56466E-04
 3.47023E-04
 4.02542E-04
 1.85469E-04
-5.94614E-05
-1.33418E-04
-2.76911E-04
-3.59898E-04
-3.83438E-04
 4.25733E-04
 3.61380E-04
 3.00350E-04
 5.03138E-05
-4.10607E-05
-2.84340E-04
-6.00029E-04
-4.99155E-04
 3.00275E-04
 1.58455E-04
-7.98391E-05
-1.05670E-04
-2.91156E-04
-1.71075E-04
 3.63690E-05
-1.53550E-04
 1.88269E-04
 2.04036E-04
 2.32320E-04
 9.49801E-05
-5.46497E-05
-2.75130E-04
-4.66514E-04
-4.14605E-04
-7.77308E-05
-1.57765E-04
 1.16149E-04
 2.13011E-04
-3.54790E-05
-1.59695E-04
-1.31286E-04
-8.39132E-05
-6.99477E-04
-5.21283E-04
-5.13230E-04
-1.72304E-04
 6.95641E-05
 3.13225E-04
 7.30238E-04
 6.90897E-04
 0.00000E+00
 0.00000E+00
 0.00000E+00
 0.00000E+00
 0.00000E+00
 0.00000E+00
 0.00000E+00
 0.00000E+00
 SCALARS dual12 float  1                           
LOOKUP_TABLE default
 0.00000E+00
 0.00000E+00
 0.00000E+00
 0.00000E+00
 0.00000E+00
 0.00000E+00
 0.00000E+00
 0.00000E+00
 0.00000E+00
-8.91972E-04
 6.63446E-04
-4.60408E-04
 1.32354E-03
-1.49750E-03
 3.90508E-04
 0.00000E+00
 0.00000E+00
-3.76545E-04
-1.76934E-05
-3.63777E-04
 3.89561E-04
 7.62492E-05
-3.06824E-04
 0.00000E+00
 0.00000E+00
-8.86750E-04
-7.92119E-04
-8.71174E-04
 9.07602E-04
-1.99563E-03
 2.36372E-04
 0.00000E+00
 0.00000E+00
-8.69868E-04
-5.93801E-04
-1.99281E-03
 3.99047E-04
-2.13005E-03
-3.97768E-04
 0.00000E+00
 0.00000E+00
-1.61440E-03
-9.18262E-04
-5.88256E-04
 2.64972E-04
-3.40463E-04
 4.12825E-06
 0.00000E+00
 0.00000E+00
-1.21631E-03
-6.02295E-04
-2.84096E-03
-4.91325E-04
-3.28778E-03
-6.14825E-04
 0.00000E+00
 0.00000E+00
-1.99387E-03
 4.55652E-04
-1.33112E-03
-4.45358E-04
-4.02700E-04
 6.29124E-05
 0.00000E+00
 0.00000E+00
 0.00000E+00
 0.00000E+00
 0.00000E+00
 0.00000E+00
 0.00000E+00
 0.00000E+00
 0.00000E+00
 SCALARS NLP float  1                              
LOOKUP_TABLE default
 0.00000E+00
 0.00000E+00
 0.00000E+00
 0.00000E+00
 0.00000E+00
 0.00000E+00
 0.00000E+00
 0.00000E+00
 0.00000E+00
 0.00000E+00
 0.00000E+00
 0.00000E+00
 0.00000E+00
 0.00000E+00
 0.00000E+00
 0.00000E+00
 0.00000E+00
 0.00000E+00
 0.00000E+00
 0.00000E+00
 0.00000E+00
 0.00000E+00
 0.00000E+00
 0.00000E+00
 0.00000E+00
 0.00000E+00
 0.00000E+00
 0.00000E+00
 0.00000E+00
 0.00000E+00
 0.00000E+00
 0.00000E+00
 0.00000E+00
 0.00000E+00
 0.00000E+00
 0.00000E+00
 0.00000E+00
 0.00000E+00
 0.00000E+00
 0.00000E+00
 0.00000E+00
 0.00000E+00
 0.00000E+00
 0.00000E+00
 0.00000E+00
 0.00000E+00
 0.00000E+00
 0.00000E+00
 0.00000E+00
 0.00000E+00
 0.00000E+00
 0.00000E+00
 0.00000E+00
 0.00000E+00
 0.00000E+00
 0.00000E+00
 0.00000E+00
 0.00000E+00
 0.00000E+00
 0.00000E+00
 0.00000E+00
 0.00000E+00
 0.00000E+00
 0.00000E+00
 0.00000E+00
 0.00000E+00
 0.00000E+00
 0.00000E+00
 0.00000E+00
 0.00000E+00
 0.00000E+00
 0.00000E+00
 SCALARS SM float  1                               
LOOKUP_TABLE default
 1.39237E+00
 1.89059E+00
 1.53334E+00
 1.52080E+00
 1.31130E+00
 2.23180E+00
 1.59416E+00
 1.21638E+00
 1.42005E+00
 1.66491E+00
 1.63941E+00
 1.55107E+00
 1.40149E+00
 1.32000E+00
 1.45788E+00
 1.37864E+00
 1.41730E+00
 1.42839E+00
 1.79477E+00
 1.54599E+00
 1.40856E+00
 1.36290E+00
 1.37653E+00
 1.37943E+00
 1.40589E+00
 1.40330E+00
 1.43822E+00
 1.54460E+00
 1.13255E+00
 1.92418E+00
 1.43933E+00
 1.36564E+00
 1.32568E+00
 1.32187E+00
 1.17321E+00
 1.00000E+00
 1.00000E+00
 1.00000E+00
 1.00499E+00
 1.15389E+00
 1.16830E+00
 1.22267E+00
 1.32701E+00
 2.27680E+00
 2.69163E+00
 1.96779E+00
 1.30164E+00
 1.22060E+00
 1.17789E+00
 1.21365E+00
 1.00928E+00
 2.75557E+00
 2.90456E+00
 1.21315E+00
 1.22907E+00
 1.24138E+00
 1.00000E+00
 1.00000E+00
 1.00000E+00
 1.00000E+00
 1.00000E+00
 1.00000E+00
 1.00000E+00
 1.04230E+00
 1.00000E+00
 1.00000E+00
 1.05833E+00
 1.00000E+00
 1.00000E+00
 1.04236E+00
 1.08810E+00
 1.00224E+00
 SCALARS gradient1 float  1                        
LOOKUP_TABLE default
 0.00000E+00
 0.00000E+00
 0.00000E+00
 0.00000E+00
 0.00000E+00
 0.00000E+00
 0.00000E+00
 0.00000E+00
 0.00000E+00
 0.00000E+00
 0.00000E+00
 0.00000E+00
 0.00000E+00
 0.00000E+00
 0.00000E+00
 0.00000E+00
 0.00000E+00
 0.00000E+00
 0.00000E+00
 0.00000E+00
 0.00000E+00
 0.00000E+00
 0.00000E+00
 0.00000E+00
 0.00000E+00
 0.00000E+00
 0.00000E+00
 0.00000E+00
 0.00000E+00
 0.00000E+00
 0.00000E+00
 0.00000E+00
 0.00000E+00
 0.00000E+00
 0.00000E+00
 0.00000E+00
 0.00000E+00
 0.00000E+00
 0.00000E+00
 0.00000E+00
 0.00000E+00
 0.00000E+00
 0.00000E+00
 0.00000E+00
 0.00000E+00
 0.00000E+00
 0.00000E+00
 0.00000E+00
 0.00000E+00
 0.00000E+00
 0.00000E+00
 0.00000E+00
 0.00000E+00
 0.00000E+00
 0.00000E+00
 0.00000E+00
 0.00000E+00
 0.00000E+00
 0.00000E+00
 0.00000E+00
 0.00000E+00
 0.00000E+00
 0.00000E+00
 0.00000E+00
 0.00000E+00
 0.00000E+00
 0.00000E+00
 0.00000E+00
 0.00000E+00
 0.00000E+00
 0.00000E+00
 0.00000E+00
 SCALARS gradient2 float  1                        
LOOKUP_TABLE default
-2.27048E-05
-1.07531E-05
 8.00301E-06
-4.67567E-07
 3.13600E-05
-2.71907E-05
 1.30034E-05
-7.46104E-06
-2.28306E-05
 9.24244E-06
 1.01596E-05
-6.31375E-06
 1.21850E-06
-4.73681E-06
 1.39351E-05
-1.83696E-05
-7.78904E-06
-2.62078E-05
-3.54929E-05
-4.02832E-05
-4.79012E-05
-4.80661E-05
-2.30079E-05
-2.31164E-05
-6.26203E-06
-3.69057E-05
-5.99533E-05
-9.74220E-05
-8.90740E-05
-7.82261E-05
-2.61286E-05
-1.88399E-06
-9.90919E-06
-3.73864E-05
-6.41070E-05
-4.36570E-05
-3.78951E-05
 7.45427E-05
-3.98538E-05
-1.07727E-05
-2.54881E-05
-5.72998E-06
-1.30239E-05
-7.49042E-06
-1.88643E-06
-1.85227E-05
-1.17262E-06
-3.34689E-06
-9.30988E-06
 3.17372E-05
 4.88598E-05
 4.14518E-05
 2.55176E-05
 3.85702E-05
 3.00425E-05
 7.44980E-06
 3.50010E-05
 8.37345E-05
 9.93867E-05
 2.17796E-04
 1.17931E-04
 2.19395E-04
 8.06466E-05
 1.06514E-05
 5.26321E-05
 1.47648E-04
 6.65742E-05
 1.24121E-04
 7.55073E-05
 6.23700E-05
 4.02028E-05
-1.36289E-06
CELL_DATA          56
SCALARS elemDataMatch  float  1
LOOKUP_TABLE default
 1.96474E-06
 1.99222E-06
 1.93484E-06
 4.25992E-06
 7.24030E-06
 6.43128E-06
 1.68932E-06
 1.48765E-06
 2.29951E-06
 2.25032E-06
 3.70547E-06
 6.13154E-06
 5.08616E-06
 1.35909E-06
 5.01310E-07
 7.23726E-07
 5.34134E-08
 3.03933E-06
 4.47766E-06
 3.76501E-06
 1.88820E-06
 4.74463E-07
 1.25009E-06
 6.47429E-06
 9.08509E-06
 1.16907E-05
 1.26706E-05
 2.05961E-06
 8.12685E-07
 1.49955E-06
 7.74378E-06
 1.40521E-05
 1.21898E-05
 8.30836E-06
 5.38057E-07
 8.35975E-07
 1.62791E-06
 1.72258E-05
 2.25494E-05
 2.13519E-05
 1.98024E-05
 8.05412E-07
 2.37441E-06
 3.55983E-06
 1.98915E-05
 1.91417E-05
 1.67977E-05
 1.94410E-05
 2.25445E-07
 2.72625E-06
 2.13786E-06
 2.60466E-06
 1.05124E-06
 3.58670E-06
 3.48320E-06
 1.72592E-07
SCALARS elemRegul  float  1
LOOKUP_TABLE default
 8.90511E-06
 4.96146E-06
 1.76935E-06
 4.31617E-06
 1.36789E-05
 1.22829E-05
 5.55883E-06
 3.93489E-06
 4.69457E-06
 4.23538E-06
 3.32667E-06
 1.55502E-06
 1.92931E-06
 1.25212E-06
 3.59442E-07
 6.13190E-06
 4.40936E-06
 7.02269E-06
 1.04137E-05
 8.46642E-06
 1.04239E-06
 1.47775E-06
 3.63622E-06
 7.66885E-06
 8.22806E-06
 1.41728E-05
 1.39639E-05
 6.14891E-06
 2.44562E-06
 2.08296E-06
 1.74459E-05
 2.76647E-05
 2.61288E-05
 1.44982E-05
 3.75428E-06
 1.04918E-06
 3.85455E-06
 3.15666E-05
 9.22672E-06
 2.89043E-05
 1.14564E-05
 1.10634E-06
 3.60678E-06
 3.35590E-06
 2.78927E-05
 3.34780E-05
 2.94012E-05
 4.04326E-06
 3.96513E-06
 8.46473E-09
 9.28340E-07
 9.28339E-07
 8.46475E-09
 6.74260E-07
 1.33753E-06
 1.17616E-06
SCALARS l2grad2  float  1
LOOKUP_TABLE default
 1.05461E-01
 5.96627E-02
 2.10389E-02
 5.10186E-02
 1.64266E-01
 1.47615E-01
 6.63684E-02
 4.70077E-02
 5.73844E-02
 5.02630E-02
 3.93015E-02
 1.83997E-02
 2.31682E-02
 1.49940E-02
 4.27350E-03
 7.31226E-02
 5.39069E-02
 8.33675E-02
 1.26685E-01
 1.01222E-01
 1.25493E-02
 1.74575E-02
 4.34586E-02
 9.11778E-02
 9.81240E-02
 1.69254E-01
 1.65841E-01
 7.30961E-02
 2.89652E-02
 2.73610E-02
 2.09619E-01
 3.27151E-01
 3.09724E-01
 1.72735E-01
 4.52287E-02
 1.24056E-02
 4.71817E-02
 3.73622E-01
 1.09321E-01
 3.42657E-01
 1.36979E-01
 1.34744E-02
 4.26282E-02
 4.01219E-02
 3.33623E-01
 3.95534E-01
 3.51245E-01
 4.77692E-02
 4.68547E-02
 4.62593E-18
 1.11039E-02
 1.11040E-02
 4.62593E-18
 8.06449E-03
 1.58805E-02
 1.50017E-02
