# vtk DataFile Version 2.0
Output of NLACE
ASCII
DATASET UNSTRUCTURED_GRID
POINTS           72 FLOAT
 1.217391E+00 -6.180602E+00  0.000000E+00
 4.869565E+00 -6.180602E+00  0.000000E+00
 8.521739E+00 -6.180602E+00  0.000000E+00
 1.217391E+01 -6.180602E+00  0.000000E+00
 1.582609E+01 -6.180602E+00  0.000000E+00
 1.947826E+01 -6.180602E+00  0.000000E+00
 2.313043E+01 -6.180602E+00  0.000000E+00
 2.678261E+01 -6.180602E+00  0.000000E+00
 1.217391E+00 -1.081605E+01  0.000000E+00
 4.869565E+00 -1.081605E+01  0.000000E+00
 8.521739E+00 -1.081605E+01  0.000000E+00
 1.217391E+01 -1.081605E+01  0.000000E+00
 1.582609E+01 -1.081605E+01  0.000000E+00
 1.947826E+01 -1.081605E+01  0.000000E+00
 2.313043E+01 -1.081605E+01  0.000000E+00
 2.678261E+01 -1.081605E+01  0.000000E+00
 1.217391E+00 -1.545151E+01  0.000000E+00
 4.869565E+00 -1.545151E+01  0.000000E+00
 8.521739E+00 -1.545151E+01  0.000000E+00
 1.217391E+01 -1.545151E+01  0.000000E+00
 1.582609E+01 -1.545151E+01  0.000000E+00
 1.947826E+01 -1.545151E+01  0.000000E+00
 2.313043E+01 -1.545151E+01  0.000000E+00
 2.678261E+01 -1.545151E+01  0.000000E+00
 1.217391E+00 -2.008696E+01  0.000000E+00
 4.869565E+00 -2.008696E+01  0.000000E+00
 8.521739E+00 -2.008696E+01  0.000000E+00
 1.217391E+01 -2.008696E+01  0.000000E+00
 1.582609E+01 -2.008696E+01  0.000000E+00
 1.947826E+01 -2.008696E+01  0.000000E+00
 2.313043E+01 -2.008696E+01  0.000000E+00
 2.678261E+01 -2.008696E+01  0.000000E+00
 1.217391E+00 -2.472241E+01  0.000000E+00
 4.869565E+00 -2.472241E+01  0.000000E+00
 8.521739E+00 -2.472241E+01  0.000000E+00
 1.217391E+01 -2.472241E+01  0.000000E+00
 1.582609E+01 -2.472241E+01  0.000000E+00
 1.947826E+01 -2.472241E+01  0.000000E+00
 2.313043E+01 -2.472241E+01  0.000000E+00
 2.678261E+01 -2.472241E+01  0.000000E+00
 1.217391E+00 -2.935786E+01  0.000000E+00
 4.869565E+00 -2.935786E+01  0.000000E+00
 8.521739E+00 -2.935786E+01  0.000000E+00
 1.217391E+01 -2.935786E+01  0.000000E+00
 1.582609E+01 -2.935786E+01  0.000000E+00
 1.947826E+01 -2.935786E+01  0.000000E+00
 2.313043E+01 -2.935786E+01  0.000000E+00
 2.678261E+01 -2.935786E+01  0.000000E+00
 1.217391E+00 -3.399331E+01  0.000000E+00
 4.869565E+00 -3.399331E+01  0.000000E+00
 8.521739E+00 -3.399331E+01  0.000000E+00
 1.217391E+01 -3.399331E+01  0.000000E+00
 1.582609E+01 -3.399331E+01  0.000000E+00
 1.947826E+01 -3.399331E+01  0.000000E+00
 2.313043E+01 -3.399331E+01  0.000000E+00
 2.678261E+01 -3.399331E+01  0.000000E+00
 1.217391E+00 -3.862876E+01  0.000000E+00
 4.869565E+00 -3.862876E+01  0.000000E+00
 8.521739E+00 -3.862876E+01  0.000000E+00
 1.217391E+01 -3.862876E+01  0.000000E+00
 1.582609E+01 -3.862876E+01  0.000000E+00
 1.947826E+01 -3.862876E+01  0.000000E+00
 2.313043E+01 -3.862876E+01  0.000000E+00
 2.678261E+01 -3.862876E+01  0.000000E+00
 1.217391E+00 -4.326421E+01  0.000000E+00
 4.869565E+00 -4.326421E+01  0.000000E+00
 8.521739E+00 -4.326421E+01  0.000000E+00
 1.217391E+01 -4.326421E+01  0.000000E+00
 1.582609E+01 -4.326421E+01  0.000000E+00
 1.947826E+01 -4.326421E+01  0.000000E+00
 2.313043E+01 -4.326421E+01  0.000000E+00
 2.678261E+01 -4.326421E+01  0.000000E+00
CELLS           56         280
4    8    9    1    0
4    9   10    2    1
4   10   11    3    2
4   11   12    4    3
4   12   13    5    4
4   13   14    6    5
4   14   15    7    6
4   16   17    9    8
4   17   18   10    9
4   18   19   11   10
4   19   20   12   11
4   20   21   13   12
4   21   22   14   13
4   22   23   15   14
4   24   25   17   16
4   25   26   18   17
4   26   27   19   18
4   27   28   20   19
4   28   29   21   20
4   29   30   22   21
4   30   31   23   22
4   32   33   25   24
4   33   34   26   25
4   34   35   27   26
4   35   36   28   27
4   36   37   29   28
4   37   38   30   29
4   38   39   31   30
4   40   41   33   32
4   41   42   34   33
4   42   43   35   34
4   43   44   36   35
4   44   45   37   36
4   45   46   38   37
4   46   47   39   38
4   48   49   41   40
4   49   50   42   41
4   50   51   43   42
4   51   52   44   43
4   52   53   45   44
4   53   54   46   45
4   54   55   47   46
4   56   57   49   48
4   57   58   50   49
4   58   59   51   50
4   59   60   52   51
4   60   61   53   52
4   61   62   54   53
4   62   63   55   54
4   64   65   57   56
4   65   66   58   57
4   66   67   59   58
4   67   68   60   59
4   68   69   61   60
4   69   70   62   61
4   70   71   63   62
CELL_TYPES           56
9
9
9
9
9
9
9
9
9
9
9
9
9
9
9
9
9
9
9
9
9
9
9
9
9
9
9
9
9
9
9
9
9
9
9
9
9
9
9
9
9
9
9
9
9
9
9
9
9
9
9
9
9
9
9
9
POINT_DATA           72
 SCALARS measuredDisp11 float  1                   
LOOKUP_TABLE default
-2.67989E-01
-2.46973E-01
-1.95923E-01
-1.74907E-01
-1.54674E-01
-1.33637E-01
-1.00305E-01
-7.82600E-02
-2.53702E-01
-2.67888E-01
-2.08877E-01
-1.65147E-01
-1.52875E-01
-1.12623E-01
-9.26820E-02
-6.43330E-02
-2.60484E-01
-2.48154E-01
-2.16792E-01
-1.72122E-01
-1.40214E-01
-9.11570E-02
-7.78130E-02
-5.73260E-02
-2.55154E-01
-2.24561E-01
-1.96736E-01
-1.62661E-01
-1.23483E-01
-9.87930E-02
-7.31570E-02
-2.42640E-02
-2.55067E-01
-2.26025E-01
-1.76470E-01
-1.39220E-01
-1.26990E-01
-1.07579E-01
-4.15490E-02
-2.23700E-02
-2.51241E-01
-2.20382E-01
-1.36901E-01
-1.35583E-01
-1.43811E-01
-1.15614E-01
-4.81670E-02
-6.79350E-02
-2.26165E-01
-1.69149E-01
-1.75962E-01
-1.15833E-01
-8.50490E-02
-4.70220E-02
-4.42840E-02
 4.42900E-03
-2.20632E-01
-1.80898E-01
-1.95286E-01
-1.48238E-01
-4.62980E-02
-4.27460E-02
-4.78090E-02
 7.52890E-02
-1.59363E-01
-1.86753E-01
-1.51910E-01
-9.99910E-02
-8.52860E-02
 4.74000E-04
 2.29850E-02
-9.93000E-03
 SCALARS measuredDisp12 float  1                   
LOOKUP_TABLE default
 7.62760E-02
 9.05160E-02
 9.65400E-02
 9.75210E-02
 1.07007E-01
 1.16125E-01
 1.24220E-01
 1.33036E-01
 1.50347E-01
 1.56859E-01
 1.71054E-01
 1.74910E-01
 1.85429E-01
 1.83154E-01
 1.98783E-01
 2.03755E-01
 2.27751E-01
 2.31966E-01
 2.41174E-01
 2.51949E-01
 2.60039E-01
 2.74770E-01
 2.74524E-01
 2.83302E-01
 3.04526E-01
 3.06903E-01
 3.15827E-01
 3.31760E-01
 3.47303E-01
 3.48494E-01
 3.54381E-01
 3.57426E-01
 3.77952E-01
 3.86016E-01
 4.01900E-01
 4.25285E-01
 4.46234E-01
 4.34334E-01
 4.33420E-01
 4.41244E-01
 4.59827E-01
 4.65554E-01
 4.82622E-01
 5.09756E-01
 5.18230E-01
 5.17164E-01
 5.18083E-01
 5.24532E-01
 5.42429E-01
 5.52108E-01
 5.60101E-01
 5.57543E-01
 5.70588E-01
 5.74858E-01
 5.95674E-01
 6.06231E-01
 6.29911E-01
 6.39975E-01
 6.47903E-01
 6.32560E-01
 6.37402E-01
 6.67059E-01
 6.83297E-01
 6.95588E-01
 7.16925E-01
 7.24626E-01
 7.38487E-01
 7.32637E-01
 7.38117E-01
 7.58368E-01
 7.63826E-01
 7.79255E-01
 SCALARS predictedDisp11 float  1                  
LOOKUP_TABLE default
-4.04314E-01
-3.75445E-01
-3.45705E-01
-3.14206E-01
-2.82701E-01
-2.53299E-01
-2.24384E-01
-1.95729E-01
-3.92715E-01
-3.64246E-01
-3.36534E-01
-3.06331E-01
-2.74663E-01
-2.42981E-01
-2.11970E-01
-1.81743E-01
-3.86844E-01
-3.56373E-01
-3.27036E-01
-2.97159E-01
-2.64958E-01
-2.30987E-01
-1.98166E-01
-1.67161E-01
-3.81300E-01
-3.51331E-01
-3.20737E-01
-2.87760E-01
-2.51173E-01
-2.16559E-01
-1.85278E-01
-1.54339E-01
-3.69704E-01
-3.39133E-01
-3.07922E-01
-2.74484E-01
-2.40542E-01
-2.08566E-01
-1.77658E-01
-1.45163E-01
-3.52693E-01
-3.18899E-01
-2.85188E-01
-2.56307E-01
-2.32170E-01
-2.06739E-01
-1.75973E-01
-1.42921E-01
-3.39602E-01
-3.04813E-01
-2.70107E-01
-2.43617E-01
-2.21998E-01
-1.97674E-01
-1.66637E-01
-1.33083E-01
-3.24196E-01
-2.89399E-01
-2.60860E-01
-2.34716E-01
-2.09973E-01
-1.83864E-01
-1.55872E-01
-1.21790E-01
-2.52689E-01
-2.40478E-01
-2.28268E-01
-2.16058E-01
-2.03848E-01
-1.91638E-01
-1.79427E-01
-1.67217E-01
 SCALARS predictedDisp12 float  1                  
LOOKUP_TABLE default
 7.62760E-02
 9.05160E-02
 9.65400E-02
 9.75210E-02
 1.07007E-01
 1.16125E-01
 1.24220E-01
 1.33036E-01
 1.50347E-01
 1.58779E-01
 1.69498E-01
 1.76838E-01
 1.82773E-01
 1.87447E-01
 1.97349E-01
 2.03755E-01
 2.27751E-01
 2.30937E-01
 2.40788E-01
 2.51589E-01
 2.60823E-01
 2.71528E-01
 2.75140E-01
 2.83302E-01
 3.04526E-01
 3.07757E-01
 3.16219E-01
 3.31468E-01
 3.45466E-01
 3.50811E-01
 3.53192E-01
 3.57426E-01
 3.77952E-01
 3.85684E-01
 4.00206E-01
 4.28754E-01
 4.45119E-01
 4.36722E-01
 4.33204E-01
 4.41244E-01
 4.59827E-01
 4.66288E-01
 4.82709E-01
 5.05963E-01
 5.15915E-01
 5.14746E-01
 5.16578E-01
 5.24532E-01
 5.42429E-01
 5.51637E-01
 5.58984E-01
 5.62732E-01
 5.69480E-01
 5.80688E-01
 5.95376E-01
 6.06231E-01
 6.29911E-01
 6.41881E-01
 6.45854E-01
 6.32621E-01
 6.37745E-01
 6.64084E-01
 6.83132E-01
 6.95588E-01
 7.16925E-01
 7.24626E-01
 7.38487E-01
 7.32637E-01
 7.38117E-01
 7.58368E-01
 7.63826E-01
 7.79255E-01
 SCALARS dual11 float  1                           
LOOKUP_TABLE default
-1.01618E-03
-1.31972E-03
-1.00939E-03
-2.63743E-04
 8.84868E-04
 1.22636E-03
 1.07342E-03
 1.57857E-03
-1.32493E-03
-1.16732E-03
-7.86200E-04
-2.37244E-04
 3.33498E-04
 1.09884E-03
 1.63895E-03
 1.69544E-03
-9.23931E-04
-6.52156E-04
-4.37665E-04
-1.41569E-04
 3.53720E-04
 8.63763E-04
 1.26664E-03
 1.32538E-03
-2.64353E-04
-2.21246E-04
 1.05901E-04
 2.44891E-04
 5.08622E-04
 4.72939E-04
 2.64046E-04
 4.99076E-04
 3.03381E-04
 2.61640E-04
 2.13521E-04
 3.23762E-04
 1.69800E-04
 7.39698E-05
 2.22348E-04
 1.59203E-04
 1.08328E-03
 1.09844E-03
 9.84015E-04
 5.95222E-04
 6.97140E-05
-5.59404E-04
-9.97194E-04
-1.03258E-03
 1.54888E-03
 1.21033E-03
 1.09964E-03
 5.83808E-04
-4.70882E-04
-9.48476E-04
-1.10459E-03
-1.33054E-03
 9.32431E-04
 8.52587E-04
 1.63954E-04
-1.55674E-04
-3.08080E-04
-3.85530E-04
-3.27922E-04
-5.34381E-04
 0.00000E+00
 0.00000E+00
 0.00000E+00
 0.00000E+00
 0.00000E+00
 0.00000E+00
 0.00000E+00
 0.00000E+00
 SCALARS dual12 float  1                           
LOOKUP_TABLE default
 0.00000E+00
 0.00000E+00
 0.00000E+00
 0.00000E+00
 0.00000E+00
 0.00000E+00
 0.00000E+00
 0.00000E+00
 0.00000E+00
-5.61917E-04
 1.69279E-03
 6.34810E-04
 2.57554E-03
-1.16049E-03
 1.03893E-03
 0.00000E+00
 0.00000E+00
 9.53802E-04
 2.10280E-03
 2.35866E-03
 2.98003E-03
 2.70190E-03
 1.16886E-03
 0.00000E+00
 0.00000E+00
 9.23726E-04
 2.21561E-03
 2.70628E-03
 4.37403E-03
 1.01919E-03
 1.84106E-03
 0.00000E+00
 0.00000E+00
 1.41204E-03
 3.39639E-03
 1.87685E-03
 4.52494E-03
 7.27096E-04
 1.94292E-03
 0.00000E+00
 0.00000E+00
 9.63370E-04
 2.84265E-03
 3.37150E-03
 3.70843E-03
 1.91147E-03
 2.35414E-03
 0.00000E+00
 0.00000E+00
 9.01459E-04
 2.51341E-03
-2.20351E-04
 1.61545E-03
-1.50669E-03
 9.60192E-04
 0.00000E+00
 0.00000E+00
-1.04445E-03
 2.63405E-03
-6.37236E-04
 3.21053E-05
 1.51404E-03
 6.85971E-04
 0.00000E+00
 0.00000E+00
 0.00000E+00
 0.00000E+00
 0.00000E+00
 0.00000E+00
 0.00000E+00
 0.00000E+00
 0.00000E+00
 SCALARS NLP float  1                              
LOOKUP_TABLE default
 0.00000E+00
 0.00000E+00
 0.00000E+00
 0.00000E+00
 0.00000E+00
 0.00000E+00
 0.00000E+00
 0.00000E+00
 0.00000E+00
 0.00000E+00
 0.00000E+00
 0.00000E+00
 0.00000E+00
 0.00000E+00
 0.00000E+00
 0.00000E+00
 0.00000E+00
 0.00000E+00
 0.00000E+00
 0.00000E+00
 0.00000E+00
 0.00000E+00
 0.00000E+00
 0.00000E+00
 0.00000E+00
 0.00000E+00
 0.00000E+00
 0.00000E+00
 0.00000E+00
 0.00000E+00
 0.00000E+00
 0.00000E+00
 0.00000E+00
 0.00000E+00
 0.00000E+00
 0.00000E+00
 0.00000E+00
 0.00000E+00
 0.00000E+00
 0.00000E+00
 0.00000E+00
 0.00000E+00
 0.00000E+00
 0.00000E+00
 0.00000E+00
 0.00000E+00
 0.00000E+00
 0.00000E+00
 0.00000E+00
 0.00000E+00
 0.00000E+00
 0.00000E+00
 0.00000E+00
 0.00000E+00
 0.00000E+00
 0.00000E+00
 0.00000E+00
 0.00000E+00
 0.00000E+00
 0.00000E+00
 0.00000E+00
 0.00000E+00
 0.00000E+00
 0.00000E+00
 0.00000E+00
 0.00000E+00
 0.00000E+00
 0.00000E+00
 0.00000E+00
 0.00000E+00
 0.00000E+00
 0.00000E+00
 SCALARS SM float  1                               
LOOKUP_TABLE default
 1.26968E+00
 1.77817E+00
 1.53383E+00
 1.43072E+00
 1.39970E+00
 1.98686E+00
 1.64466E+00
 1.18654E+00
 1.30780E+00
 1.76512E+00
 1.72722E+00
 1.49414E+00
 1.39970E+00
 1.38243E+00
 1.61170E+00
 1.28555E+00
 1.39464E+00
 1.39447E+00
 1.76194E+00
 1.59005E+00
 1.40926E+00
 1.36809E+00
 1.40314E+00
 1.24803E+00
 1.38008E+00
 1.39356E+00
 1.52787E+00
 1.38910E+00
 1.16017E+00
 1.80226E+00
 1.51607E+00
 1.41797E+00
 1.33317E+00
 1.30460E+00
 1.19473E+00
 1.03583E+00
 1.04515E+00
 1.06037E+00
 1.07323E+00
 1.20528E+00
 1.25463E+00
 1.21168E+00
 1.31833E+00
 2.25444E+00
 2.63784E+00
 1.89060E+00
 1.31320E+00
 1.21468E+00
 1.08900E+00
 1.18977E+00
 1.08592E+00
 2.65102E+00
 2.79215E+00
 1.37285E+00
 1.23683E+00
 1.21343E+00
 1.00000E+00
 1.00461E+00
 1.00000E+00
 1.00000E+00
 1.00000E+00
 1.00000E+00
 1.00000E+00
 1.01358E+00
 1.00000E+00
 1.00000E+00
 1.03899E+00
 1.00000E+00
 1.00000E+00
 1.02766E+00
 1.14206E+00
 1.02524E+00
 SCALARS gradient1 float  1                        
LOOKUP_TABLE default
 0.00000E+00
 0.00000E+00
 0.00000E+00
 0.00000E+00
 0.00000E+00
 0.00000E+00
 0.00000E+00
 0.00000E+00
 0.00000E+00
 0.00000E+00
 0.00000E+00
 0.00000E+00
 0.00000E+00
 0.00000E+00
 0.00000E+00
 0.00000E+00
 0.00000E+00
 0.00000E+00
 0.00000E+00
 0.00000E+00
 0.00000E+00
 0.00000E+00
 0.00000E+00
 0.00000E+00
 0.00000E+00
 0.00000E+00
 0.00000E+00
 0.00000E+00
 0.00000E+00
 0.00000E+00
 0.00000E+00
 0.00000E+00
 0.00000E+00
 0.00000E+00
 0.00000E+00
 0.00000E+00
 0.00000E+00
 0.00000E+00
 0.00000E+00
 0.00000E+00
 0.00000E+00
 0.00000E+00
 0.00000E+00
 0.00000E+00
 0.00000E+00
 0.00000E+00
 0.00000E+00
 0.00000E+00
 0.00000E+00
 0.00000E+00
 0.00000E+00
 0.00000E+00
 0.00000E+00
 0.00000E+00
 0.00000E+00
 0.00000E+00
 0.00000E+00
 0.00000E+00
 0.00000E+00
 0.00000E+00
 0.00000E+00
 0.00000E+00
 0.00000E+00
 0.00000E+00
 0.00000E+00
 0.00000E+00
 0.00000E+00
 0.00000E+00
 0.00000E+00
 0.00000E+00
 0.00000E+00
 0.00000E+00
 SCALARS gradient2 float  1                        
LOOKUP_TABLE default
-1.97339E-05
 1.23275E-05
 8.86138E-05
 9.69370E-05
 1.30107E-04
 1.72166E-05
 5.58784E-05
 2.84485E-06
-5.78655E-06
 1.27278E-04
 2.02356E-04
 2.19928E-04
 2.40942E-04
 2.28545E-04
 1.51923E-04
 3.78031E-07
 1.24337E-05
 8.32664E-05
 1.30701E-04
 1.79025E-04
 1.78749E-04
 1.65301E-04
 8.93694E-05
-1.42239E-05
-1.44966E-06
 5.38927E-05
 1.16488E-04
 1.44403E-05
 4.62941E-05
-2.21182E-05
 4.35775E-05
 1.95436E-05
 5.01220E-06
-3.90508E-07
 1.21364E-05
-6.46025E-06
-2.21849E-05
 4.54398E-05
-5.25487E-06
-1.38025E-06
-5.07850E-06
-5.64607E-05
-7.93606E-05
-1.01069E-04
-1.22824E-04
-1.17222E-04
-7.04076E-05
-2.07673E-05
-4.90387E-05
-1.27142E-04
-1.15913E-04
-1.88090E-04
-1.67156E-04
-3.70851E-05
-9.00884E-05
-3.22378E-05
-3.17062E-05
-1.39192E-04
-2.16059E-04
-2.42884E-05
-8.28230E-05
 6.20527E-06
-8.78373E-05
-4.72278E-05
 5.04709E-06
 8.90402E-06
-1.54057E-04
 8.28907E-06
-2.43321E-05
-1.36475E-04
-6.20282E-05
-2.27328E-05
CELL_DATA          56
SCALARS elemDataMatch  float  1
LOOKUP_TABLE default
 3.46635E-06
 2.93435E-06
 2.95118E-06
 5.31493E-06
 1.32459E-05
 1.34794E-05
 1.93378E-06
 2.60422E-06
 3.55447E-06
 3.16928E-06
 4.29848E-06
 1.19015E-05
 1.13523E-05
 1.46000E-06
 8.55152E-07
 1.34067E-06
 4.52416E-07
 3.14075E-06
 7.52831E-06
 6.88265E-06
 9.97064E-07
 5.23240E-07
 2.84414E-06
 7.90041E-06
 1.07372E-05
 1.21020E-05
 1.25855E-05
 1.61486E-06
 3.81161E-07
 2.93874E-06
 1.23655E-05
 2.39438E-05
 1.54967E-05
 9.40489E-06
 2.48119E-06
 3.90215E-07
 1.62886E-06
 1.78744E-05
 2.81289E-05
 2.69190E-05
 2.48469E-05
 2.63573E-06
 2.78188E-06
 6.33085E-06
 2.22985E-05
 2.19490E-05
 2.03443E-05
 2.29285E-05
 1.55315E-07
 3.41776E-06
 3.69361E-06
 3.83595E-06
 1.33593E-07
 7.47516E-06
 8.81107E-06
 2.56522E-08
SCALARS elemRegul  float  1
LOOKUP_TABLE default
 1.11979E-05
 3.84928E-06
 4.60729E-06
 1.60476E-06
 9.34221E-06
 7.17529E-06
 9.13535E-06
 6.49688E-06
 5.47587E-06
 4.85339E-06
 3.36492E-06
 6.90945E-07
 3.84790E-06
 6.08691E-06
 2.25031E-07
 6.33208E-06
 5.36460E-06
 6.28579E-06
 8.32576E-06
 6.14375E-06
 3.92377E-06
 1.28447E-06
 4.21310E-06
 7.15510E-06
 5.20575E-06
 1.15726E-05
 1.14441E-05
 6.19724E-06
 1.77380E-06
 1.68575E-06
 1.67589E-05
 2.61877E-05
 2.42166E-05
 1.23438E-05
 2.81680E-06
 2.08306E-06
 2.74650E-06
 2.92167E-05
 8.01866E-06
 2.55813E-05
 1.02141E-05
 1.63756E-06
 2.85422E-06
 2.84927E-06
 2.58714E-05
 3.14943E-05
 2.71904E-05
 5.85517E-06
 3.99635E-06
 7.39397E-08
 5.71942E-07
 6.20657E-07
 8.46475E-09
 4.40314E-07
 2.15944E-06
 2.01851E-06
SCALARS l2grad2  float  1
LOOKUP_TABLE default
 1.32297E-01
 4.59010E-02
 5.45690E-02
 1.90521E-02
 1.11839E-01
 8.79576E-02
 1.07986E-01
 7.81119E-02
 6.57821E-02
 5.73629E-02
 3.98313E-02
 8.19257E-03
 4.58303E-02
 7.20847E-02
 2.68833E-03
 7.51258E-02
 6.33848E-02
 7.42736E-02
 1.01547E-01
 7.34134E-02
 4.63884E-02
 1.52508E-02
 5.06732E-02
 8.45310E-02
 6.20282E-02
 1.38104E-01
 1.35610E-01
 7.37024E-02
 2.09606E-02
 2.25921E-02
 2.01375E-01
 3.09656E-01
 2.87334E-01
 1.47149E-01
 3.46340E-02
 2.52133E-02
 3.35934E-02
 3.45624E-01
 9.50246E-02
 3.02834E-01
 1.21396E-01
 1.94764E-02
 3.38808E-02
 3.38321E-02
 3.09280E-01
 3.72098E-01
 3.24434E-01
 6.93375E-02
 4.72298E-02
 8.76882E-04
 6.87277E-03
 7.42322E-03
 4.62593E-18
 5.26563E-03
 2.57710E-02
 2.42133E-02
