# vtk DataFile Version 2.0
OUTPUT FROM BUFEM
ASCII
DATASET UNSTRUCTURED_GRID
POINTS          609 FLOAT
 5.478261E+00 -2.317726E+01  0.000000E+00
 6.086957E+00 -2.317726E+01  0.000000E+00
 6.695652E+00 -2.317726E+01  0.000000E+00
 7.304348E+00 -2.317726E+01  0.000000E+00
 7.913043E+00 -2.317726E+01  0.000000E+00
 8.521739E+00 -2.317726E+01  0.000000E+00
 9.130435E+00 -2.317726E+01  0.000000E+00
 9.739130E+00 -2.317726E+01  0.000000E+00
 1.034783E+01 -2.317726E+01  0.000000E+00
 1.095652E+01 -2.317726E+01  0.000000E+00
 1.156522E+01 -2.317726E+01  0.000000E+00
 1.217391E+01 -2.317726E+01  0.000000E+00
 1.278261E+01 -2.317726E+01  0.000000E+00
 1.339130E+01 -2.317726E+01  0.000000E+00
 1.400000E+01 -2.317726E+01  0.000000E+00
 1.460870E+01 -2.317726E+01  0.000000E+00
 1.521739E+01 -2.317726E+01  0.000000E+00
 1.582609E+01 -2.317726E+01  0.000000E+00
 1.643478E+01 -2.317726E+01  0.000000E+00
 1.704348E+01 -2.317726E+01  0.000000E+00
 1.765217E+01 -2.317726E+01  0.000000E+00
 1.826087E+01 -2.317726E+01  0.000000E+00
 1.886957E+01 -2.317726E+01  0.000000E+00
 1.947826E+01 -2.317726E+01  0.000000E+00
 2.008696E+01 -2.317726E+01  0.000000E+00
 2.069565E+01 -2.317726E+01  0.000000E+00
 2.130435E+01 -2.317726E+01  0.000000E+00
 2.191304E+01 -2.317726E+01  0.000000E+00
 2.252174E+01 -2.317726E+01  0.000000E+00
 5.478261E+00 -2.394983E+01  0.000000E+00
 6.086957E+00 -2.394983E+01  0.000000E+00
 6.695652E+00 -2.394983E+01  0.000000E+00
 7.304348E+00 -2.394983E+01  0.000000E+00
 7.913043E+00 -2.394983E+01  0.000000E+00
 8.521739E+00 -2.394983E+01  0.000000E+00
 9.130435E+00 -2.394983E+01  0.000000E+00
 9.739130E+00 -2.394983E+01  0.000000E+00
 1.034783E+01 -2.394983E+01  0.000000E+00
 1.095652E+01 -2.394983E+01  0.000000E+00
 1.156522E+01 -2.394983E+01  0.000000E+00
 1.217391E+01 -2.394983E+01  0.000000E+00
 1.278261E+01 -2.394983E+01  0.000000E+00
 1.339130E+01 -2.394983E+01  0.000000E+00
 1.400000E+01 -2.394983E+01  0.000000E+00
 1.460870E+01 -2.394983E+01  0.000000E+00
 1.521739E+01 -2.394983E+01  0.000000E+00
 1.582609E+01 -2.394983E+01  0.000000E+00
 1.643478E+01 -2.394983E+01  0.000000E+00
 1.704348E+01 -2.394983E+01  0.000000E+00
 1.765217E+01 -2.394983E+01  0.000000E+00
 1.826087E+01 -2.394983E+01  0.000000E+00
 1.886957E+01 -2.394983E+01  0.000000E+00
 1.947826E+01 -2.394983E+01  0.000000E+00
 2.008696E+01 -2.394983E+01  0.000000E+00
 2.069565E+01 -2.394983E+01  0.000000E+00
 2.130435E+01 -2.394983E+01  0.000000E+00
 2.191304E+01 -2.394983E+01  0.000000E+00
 2.252174E+01 -2.394983E+01  0.000000E+00
 5.478261E+00 -2.472241E+01  0.000000E+00
 6.086957E+00 -2.472241E+01  0.000000E+00
 6.695652E+00 -2.472241E+01  0.000000E+00
 7.304348E+00 -2.472241E+01  0.000000E+00
 7.913043E+00 -2.472241E+01  0.000000E+00
 8.521739E+00 -2.472241E+01  0.000000E+00
 9.130435E+00 -2.472241E+01  0.000000E+00
 9.739130E+00 -2.472241E+01  0.000000E+00
 1.034783E+01 -2.472241E+01  0.000000E+00
 1.095652E+01 -2.472241E+01  0.000000E+00
 1.156522E+01 -2.472241E+01  0.000000E+00
 1.217391E+01 -2.472241E+01  0.000000E+00
 1.278261E+01 -2.472241E+01  0.000000E+00
 1.339130E+01 -2.472241E+01  0.000000E+00
 1.400000E+01 -2.472241E+01  0.000000E+00
 1.460870E+01 -2.472241E+01  0.000000E+00
 1.521739E+01 -2.472241E+01  0.000000E+00
 1.582609E+01 -2.472241E+01  0.000000E+00
 1.643478E+01 -2.472241E+01  0.000000E+00
 1.704348E+01 -2.472241E+01  0.000000E+00
 1.765217E+01 -2.472241E+01  0.000000E+00
 1.826087E+01 -2.472241E+01  0.000000E+00
 1.886957E+01 -2.472241E+01  0.000000E+00
 1.947826E+01 -2.472241E+01  0.000000E+00
 2.008696E+01 -2.472241E+01  0.000000E+00
 2.069565E+01 -2.472241E+01  0.000000E+00
 2.130435E+01 -2.472241E+01  0.000000E+00
 2.191304E+01 -2.472241E+01  0.000000E+00
 2.252174E+01 -2.472241E+01  0.000000E+00
 5.478261E+00 -2.549498E+01  0.000000E+00
 6.086957E+00 -2.549498E+01  0.000000E+00
 6.695652E+00 -2.549498E+01  0.000000E+00
 7.304348E+00 -2.549498E+01  0.000000E+00
 7.913043E+00 -2.549498E+01  0.000000E+00
 8.521739E+00 -2.549498E+01  0.000000E+00
 9.130435E+00 -2.549498E+01  0.000000E+00
 9.739130E+00 -2.549498E+01  0.000000E+00
 1.034783E+01 -2.549498E+01  0.000000E+00
 1.095652E+01 -2.549498E+01  0.000000E+00
 1.156522E+01 -2.549498E+01  0.000000E+00
 1.217391E+01 -2.549498E+01  0.000000E+00
 1.278261E+01 -2.549498E+01  0.000000E+00
 1.339130E+01 -2.549498E+01  0.000000E+00
 1.400000E+01 -2.549498E+01  0.000000E+00
 1.460870E+01 -2.549498E+01  0.000000E+00
 1.521739E+01 -2.549498E+01  0.000000E+00
 1.582609E+01 -2.549498E+01  0.000000E+00
 1.643478E+01 -2.549498E+01  0.000000E+00
 1.704348E+01 -2.549498E+01  0.000000E+00
 1.765217E+01 -2.549498E+01  0.000000E+00
 1.826087E+01 -2.549498E+01  0.000000E+00
 1.886957E+01 -2.549498E+01  0.000000E+00
 1.947826E+01 -2.549498E+01  0.000000E+00
 2.008696E+01 -2.549498E+01  0.000000E+00
 2.069565E+01 -2.549498E+01  0.000000E+00
 2.130435E+01 -2.549498E+01  0.000000E+00
 2.191304E+01 -2.549498E+01  0.000000E+00
 2.252174E+01 -2.549498E+01  0.000000E+00
 5.478261E+00 -2.626756E+01  0.000000E+00
 6.086957E+00 -2.626756E+01  0.000000E+00
 6.695652E+00 -2.626756E+01  0.000000E+00
 7.304348E+00 -2.626756E+01  0.000000E+00
 7.913043E+00 -2.626756E+01  0.000000E+00
 8.521739E+00 -2.626756E+01  0.000000E+00
 9.130435E+00 -2.626756E+01  0.000000E+00
 9.739130E+00 -2.626756E+01  0.000000E+00
 1.034783E+01 -2.626756E+01  0.000000E+00
 1.095652E+01 -2.626756E+01  0.000000E+00
 1.156522E+01 -2.626756E+01  0.000000E+00
 1.217391E+01 -2.626756E+01  0.000000E+00
 1.278261E+01 -2.626756E+01  0.000000E+00
 1.339130E+01 -2.626756E+01  0.000000E+00
 1.400000E+01 -2.626756E+01  0.000000E+00
 1.460870E+01 -2.626756E+01  0.000000E+00
 1.521739E+01 -2.626756E+01  0.000000E+00
 1.582609E+01 -2.626756E+01  0.000000E+00
 1.643478E+01 -2.626756E+01  0.000000E+00
 1.704348E+01 -2.626756E+01  0.000000E+00
 1.765217E+01 -2.626756E+01  0.000000E+00
 1.826087E+01 -2.626756E+01  0.000000E+00
 1.886957E+01 -2.626756E+01  0.000000E+00
 1.947826E+01 -2.626756E+01  0.000000E+00
 2.008696E+01 -2.626756E+01  0.000000E+00
 2.069565E+01 -2.626756E+01  0.000000E+00
 2.130435E+01 -2.626756E+01  0.000000E+00
 2.191304E+01 -2.626756E+01  0.000000E+00
 2.252174E+01 -2.626756E+01  0.000000E+00
 5.478261E+00 -2.704013E+01  0.000000E+00
 6.086957E+00 -2.704013E+01  0.000000E+00
 6.695652E+00 -2.704013E+01  0.000000E+00
 7.304348E+00 -2.704013E+01  0.000000E+00
 7.913043E+00 -2.704013E+01  0.000000E+00
 8.521739E+00 -2.704013E+01  0.000000E+00
 9.130435E+00 -2.704013E+01  0.000000E+00
 9.739130E+00 -2.704013E+01  0.000000E+00
 1.034783E+01 -2.704013E+01  0.000000E+00
 1.095652E+01 -2.704013E+01  0.000000E+00
 1.156522E+01 -2.704013E+01  0.000000E+00
 1.217391E+01 -2.704013E+01  0.000000E+00
 1.278261E+01 -2.704013E+01  0.000000E+00
 1.339130E+01 -2.704013E+01  0.000000E+00
 1.400000E+01 -2.704013E+01  0.000000E+00
 1.460870E+01 -2.704013E+01  0.000000E+00
 1.521739E+01 -2.704013E+01  0.000000E+00
 1.582609E+01 -2.704013E+01  0.000000E+00
 1.643478E+01 -2.704013E+01  0.000000E+00
 1.704348E+01 -2.704013E+01  0.000000E+00
 1.765217E+01 -2.704013E+01  0.000000E+00
 1.826087E+01 -2.704013E+01  0.000000E+00
 1.886957E+01 -2.704013E+01  0.000000E+00
 1.947826E+01 -2.704013E+01  0.000000E+00
 2.008696E+01 -2.704013E+01  0.000000E+00
 2.069565E+01 -2.704013E+01  0.000000E+00
 2.130435E+01 -2.704013E+01  0.000000E+00
 2.191304E+01 -2.704013E+01  0.000000E+00
 2.252174E+01 -2.704013E+01  0.000000E+00
 5.478261E+00 -2.781271E+01  0.000000E+00
 6.086957E+00 -2.781271E+01  0.000000E+00
 6.695652E+00 -2.781271E+01  0.000000E+00
 7.304348E+00 -2.781271E+01  0.000000E+00
 7.913043E+00 -2.781271E+01  0.000000E+00
 8.521739E+00 -2.781271E+01  0.000000E+00
 9.130435E+00 -2.781271E+01  0.000000E+00
 9.739130E+00 -2.781271E+01  0.000000E+00
 1.034783E+01 -2.781271E+01  0.000000E+00
 1.095652E+01 -2.781271E+01  0.000000E+00
 1.156522E+01 -2.781271E+01  0.000000E+00
 1.217391E+01 -2.781271E+01  0.000000E+00
 1.278261E+01 -2.781271E+01  0.000000E+00
 1.339130E+01 -2.781271E+01  0.000000E+00
 1.400000E+01 -2.781271E+01  0.000000E+00
 1.460870E+01 -2.781271E+01  0.000000E+00
 1.521739E+01 -2.781271E+01  0.000000E+00
 1.582609E+01 -2.781271E+01  0.000000E+00
 1.643478E+01 -2.781271E+01  0.000000E+00
 1.704348E+01 -2.781271E+01  0.000000E+00
 1.765217E+01 -2.781271E+01  0.000000E+00
 1.826087E+01 -2.781271E+01  0.000000E+00
 1.886957E+01 -2.781271E+01  0.000000E+00
 1.947826E+01 -2.781271E+01  0.000000E+00
 2.008696E+01 -2.781271E+01  0.000000E+00
 2.069565E+01 -2.781271E+01  0.000000E+00
 2.130435E+01 -2.781271E+01  0.000000E+00
 2.191304E+01 -2.781271E+01  0.000000E+00
 2.252174E+01 -2.781271E+01  0.000000E+00
 5.478261E+00 -2.858528E+01  0.000000E+00
 6.086957E+00 -2.858528E+01  0.000000E+00
 6.695652E+00 -2.858528E+01  0.000000E+00
 7.304348E+00 -2.858528E+01  0.000000E+00
 7.913043E+00 -2.858528E+01  0.000000E+00
 8.521739E+00 -2.858528E+01  0.000000E+00
 9.130435E+00 -2.858528E+01  0.000000E+00
 9.739130E+00 -2.858528E+01  0.000000E+00
 1.034783E+01 -2.858528E+01  0.000000E+00
 1.095652E+01 -2.858528E+01  0.000000E+00
 1.156522E+01 -2.858528E+01  0.000000E+00
 1.217391E+01 -2.858528E+01  0.000000E+00
 1.278261E+01 -2.858528E+01  0.000000E+00
 1.339130E+01 -2.858528E+01  0.000000E+00
 1.400000E+01 -2.858528E+01  0.000000E+00
 1.460870E+01 -2.858528E+01  0.000000E+00
 1.521739E+01 -2.858528E+01  0.000000E+00
 1.582609E+01 -2.858528E+01  0.000000E+00
 1.643478E+01 -2.858528E+01  0.000000E+00
 1.704348E+01 -2.858528E+01  0.000000E+00
 1.765217E+01 -2.858528E+01  0.000000E+00
 1.826087E+01 -2.858528E+01  0.000000E+00
 1.886957E+01 -2.858528E+01  0.000000E+00
 1.947826E+01 -2.858528E+01  0.000000E+00
 2.008696E+01 -2.858528E+01  0.000000E+00
 2.069565E+01 -2.858528E+01  0.000000E+00
 2.130435E+01 -2.858528E+01  0.000000E+00
 2.191304E+01 -2.858528E+01  0.000000E+00
 2.252174E+01 -2.858528E+01  0.000000E+00
 5.478261E+00 -2.935786E+01  0.000000E+00
 6.086957E+00 -2.935786E+01  0.000000E+00
 6.695652E+00 -2.935786E+01  0.000000E+00
[...]
POINT_DATA          609
 SCALARS measuredDisp11 float  1                   
LOOKUP_TABLE default
-2.13963E-01
-1.94062E-01
-1.92995E-01
-2.02167E-01
-1.99792E-01
-1.84900E-01
-1.74396E-01
-1.73320E-01
-1.71803E-01
-1.63125E-01
-1.59366E-01
-1.62360E-01
-1.52875E-01
-1.40099E-01
-1.32894E-01
-1.32782E-01
-1.29191E-01
-1.23707E-01
-1.32241E-01
-1.34214E-01
-1.15288E-01
-9.48510E-02
-9.02520E-02
-9.46430E-02
-8.45740E-02
-8.28370E-02
-8.30410E-02
-7.64770E-02
-6.72010E-02
-2.17111E-01
-2.02845E-01
-1.92683E-01
-1.97157E-01
-1.91952E-01
-1.82202E-01
-1.79601E-01
-1.73064E-01
-1.64579E-01
-1.60041E-01
-1.56785E-01
-1.47270E-01
-1.40749E-01
-1.40474E-01
-1.33844E-01
-1.28730E-01
-1.19755E-01
-1.21529E-01
-1.40560E-01
-1.32138E-01
-1.12069E-01
-1.00067E-01
-9.81250E-02
-9.96920E-02
-8.99550E-02
-8.27290E-02
-7.62470E-02
-7.60750E-02
-5.94920E-02
-2.26283E-01
-2.21684E-01
-2.05035E-01
-1.92088E-01
-1.80286E-01
-1.76470E-01
-1.79744E-01
-1.72236E-01
-1.60146E-01
-1.48031E-01
-1.40590E-01
-1.39220E-01
-1.32214E-01
-1.17464E-01
-1.13877E-01
-1.19965E-01
-1.15567E-01
-1.26990E-01
-1.33989E-01
-1.32185E-01
-1.29783E-01
-1.27098E-01
-1.23698E-01
-1.07579E-01
-9.09880E-02
-8.03030E-02
-7.60440E-02
-8.31410E-02
-6.51190E-02
-2.32585E-01
-2.25510E-01
-2.02031E-01
-1.89226E-01
-1.90097E-01
-1.87053E-01
-1.75434E-01
-1.60345E-01
-1.51970E-01
-1.42706E-01
-1.40325E-01
-1.43712E-01
-1.32237E-01
-1.14956E-01
-1.14680E-01
-1.15621E-01
-1.16698E-01
-1.25611E-01
-1.26857E-01
-1.32017E-01
-1.34940E-01
-1.33418E-01
-1.37080E-01
-1.13195E-01
-8.69040E-02
-9.21440E-02
-9.68320E-02
-8.59290E-02
-7.31690E-02
-2.28863E-01
-2.20952E-01
-1.98066E-01
-1.89629E-01
-1.89515E-01
-1.83696E-01
-1.76095E-01
-1.62927E-01
-1.45456E-01
-1.43946E-01
-1.49126E-01
-1.31740E-01
-1.11237E-01
-1.17410E-01
-1.13634E-01
-1.00990E-01
-1.09711E-01
-1.18832E-01
-1.14099E-01
-1.21503E-01
-1.20392E-01
-1.07676E-01
-1.03938E-01
-9.33840E-02
-7.62560E-02
-8.79500E-02
-8.89120E-02
-6.84740E-02
-6.30400E-02
-2.18217E-01
-2.12379E-01
-2.01593E-01
-1.90205E-01
-1.75755E-01
-1.67270E-01
-1.67470E-01
-1.62850E-01
-1.52604E-01
-1.52043E-01
-1.45398E-01
-1.30976E-01
-1.20129E-01
-1.25767E-01
-1.01700E-01
-8.10840E-02
-1.04942E-01
-1.09659E-01
-1.01685E-01
-1.16739E-01
-1.24891E-01
-9.45260E-02
-6.93090E-02
-6.91460E-02
-7.15730E-02
-7.04850E-02
-6.46070E-02
-6.10230E-02
-5.98550E-02
-2.08188E-01
-2.09676E-01
-2.08984E-01
-1.93328E-01
-1.65217E-01
-1.49092E-01
-1.42263E-01
-1.35891E-01
-1.35544E-01
-1.38333E-01
-1.40946E-01
-1.41092E-01
-1.45556E-01
-1.54713E-01
-1.36312E-01
-1.16967E-01
-1.15980E-01
-1.08557E-01
-1.10349E-01
-1.29107E-01
-1.36779E-01
-1.11334E-01
-7.99220E-02
-7.40820E-02
-7.87240E-02
-7.76190E-02
-6.88780E-02
-6.26190E-02
-5.42360E-02
-1.95170E-01
-1.99159E-01
-2.05166E-01
-1.89287E-01
-1.50780E-01
-1.30130E-01
-1.25579E-01
-1.20845E-01
-1.16904E-01
-1.33579E-01
-1.43610E-01
-1.41284E-01
-1.48581E-01
-1.61149E-01
-1.47855E-01
-1.31677E-01
-1.22791E-01
-1.10457E-01
-1.09897E-01
-1.11705E-01
-1.20725E-01
-1.20782E-01
-1.10306E-01
-9.84130E-02
-9.76670E-02
-9.22050E-02
-7.64820E-02
-6.54290E-02
-5.07830E-02
-2.07149E-01
-1.91473E-01
-1.79457E-01
-1.67545E-01
-1.49093E-01
-1.36901E-01
-1.24401E-01
-1.09790E-01
-1.19663E-01
-1.41242E-01
-1.38493E-01
-1.35583E-01
-1.40793E-01
-1.48968E-01
-1.51883E-01
-1.42611E-01
-1.31015E-01
-1.43811E-01
-1.46309E-01
-1.30330E-01
-9.15420E-02
-6.87210E-02
-1.05817E-01
-1.15614E-01
-9.41510E-02
-8.33730E-02
-7.90610E-02
-6.69670E-02
-5.18640E-02
-2.22052E-01
-1.98158E-01
-1.79248E-01
-1.63823E-01
-1.59678E-01
-1.59910E-01
-1.35474E-01
-1.13948E-01
-1.25420E-01
-1.40782E-01
-1.41304E-01
-1.12733E-01
-7.49160E-02
-1.11487E-01
-1.72248E-01
-1.66182E-01
-1.43631E-01
-1.45119E-01
-1.47289E-01
-1.40449E-01
-9.50630E-02
-6.59710E-02
-9.57580E-02
-1.07236E-01
-8.05880E-02
-7.48990E-02
-8.68790E-02
-6.12830E-02
-4.27540E-02
-2.15470E-01
-2.19176E-01
-2.30521E-01
-2.05533E-01
-1.87215E-01
-1.95907E-01
-1.85483E-01
-1.68309E-01
-1.52862E-01
-1.37373E-01
-1.30215E-01
-8.56230E-02
-4.69280E-02
-8.80260E-02
-1.50046E-01
-1.54370E-01
-1.33030E-01
-1.12945E-01
-1.04121E-01
-1.10068E-01
-1.02665E-01
-8.15610E-02
-6.80940E-02
-6.46180E-02
-6.99180E-02
-6.54160E-02
-6.75190E-02
-1.18450E-02
 9.46200E-03
-1.99019E-01
-2.14463E-01
-2.37367E-01
-2.18260E-01
-2.00720E-01
-2.08790E-01
-2.14412E-01
-1.97832E-01
-1.45202E-01
-1.19577E-01
-1.15248E-01
-1.00117E-01
-9.96350E-02
-1.24912E-01
-1.53918E-01
-1.60513E-01
-1.28302E-01
-9.37060E-02
-8.22960E-02
-8.85760E-02
-9.74520E-02
-8.72890E-02
-6.12360E-02
-5.69690E-02
-7.21560E-02
-6.24810E-02
-4.39770E-02
-1.26570E-02
-2.11130E-02
-1.76900E-01
-1.68929E-01
-1.79699E-01
-1.84798E-01
-1.89381E-01
-1.80367E-01
-1.85206E-01
-1.47027E-01
-9.74960E-02
-1.03533E-01
-1.03702E-01
-9.85370E-02
-1.08607E-01
-1.22642E-01
-1.46461E-01
-1.57133E-01
-1.20514E-01
-1.04068E-01
-1.12931E-01
-1.05975E-01
-1.20094E-01
-1.08025E-01
-9.11670E-02
-7.75600E-02
-7.37160E-02
-7.74510E-02
-5.89850E-02
-1.44230E-02
-5.29600E-03
-1.25592E-01
-1.44366E-01
-1.57756E-01
-1.64730E-01
-1.64023E-01
-1.67718E-01
-1.65855E-01
-1.06903E-01
-7.29080E-02
-9.86840E-02
-1.05593E-01
-1.00128E-01
-1.00980E-01
-1.01359E-01
-1.00340E-01
-9.68670E-02
-7.36790E-02
-1.01727E-01
-1.38218E-01
-1.50726E-01
-1.79855E-01
-1.47544E-01
-9.50270E-02
-6.91120E-02
-5.79530E-02
-7.31080E-02
-8.00710E-02
-3.88840E-02
-3.42700E-03
-1.46516E-01
-1.89799E-01
-2.09789E-01
-1.99811E-01
-1.72004E-01
-1.75962E-01
-1.69013E-01
-1.11585E-01
-9.14010E-02
-1.03897E-01
-1.12903E-01
-1.15833E-01
-1.09928E-01
-9.09330E-02
-6.64810E-02
-5.63320E-02
-6.07780E-02
-8.50490E-02
-1.12908E-01
-1.29531E-01
-1.44804E-01
-1.34655E-01
-9.06620E-02
-4.70220E-02
-4.21480E-02
-7.86130E-02
-8.95640E-02
-7.04560E-02
-4.70200E-02
-2.03896E-01
-2.26386E-01
-2.42179E-01
-2.38177E-01
-2.05675E-01
-2.11003E-01
-1.85609E-01
-1.19772E-01
-9.87880E-02
-1.02434E-01
-1.19456E-01
-1.31532E-01
-1.20212E-01
-1.01037E-01
-8.61760E-02
-9.73590E-02
-1.15987E-01
-1.19620E-01
-1.24908E-01
-1.24700E-01
-1.21622E-01
-1.31108E-01
-1.04410E-01
-4.57420E-02
-4.17460E-02
-6.09730E-02
-2.39830E-02
 1.44000E-04
-1.43620E-02
-2.51567E-01
-2.55119E-01
-2.57567E-01
-2.46660E-01
-2.48284E-01
-2.11951E-01
-1.86005E-01
-1.49180E-01
-1.08459E-01
-9.77530E-02
-1.13430E-01
-1.19179E-01
-1.05591E-01
-1.04443E-01
-1.12216E-01
-1.32747E-01
-1.51774E-01
-1.45966E-01
-1.40291E-01
-1.56577E-01
-1.68272E-01
-1.52391E-01
-2.99350E-02
-1.28280E-02
-3.19190E-02
-1.92330E-02
 2.58730E-02
 7.01640E-02
 5.75230E-02
-2.40540E-01
-2.14890E-01
-2.15450E-01
-1.91564E-01
-2.01798E-01
-1.96437E-01
-1.82896E-01
-1.87097E-01
-1.95235E-01
-1.53638E-01
-1.26784E-01
-1.16451E-01
-1.04000E-01
-1.07341E-01
-1.15025E-01
-1.28721E-01
-1.50017E-01
-1.48304E-01
-1.27897E-01
-1.35590E-01
-1.51928E-01
-1.34900E-03
 2.62920E-02
 6.45900E-03
-7.83700E-03
-7.64100E-03
-8.09000E-03
 2.64000E-03
 1.47180E-02
-2.03794E-01
-1.73877E-01
-1.36378E-01
-1.25458E-01
-1.56025E-01
-1.86195E-01
-1.87192E-01
-1.93894E-01
-2.04390E-01
-1.87141E-01
-1.50816E-01
-1.33504E-01
-1.14376E-01
-1.02114E-01
-1.01819E-01
-1.08460E-01
-1.21207E-01
-1.06424E-01
-6.10340E-02
-2.91600E-02
-1.11040E-02
-9.48700E-03
-9.02600E-03
-2.34500E-03
-3.20600E-03
-2.64910E-02
-5.03510E-02
-4.86180E-02
-5.40460E-02
-1.93561E-01
-1.60901E-01
-1.19279E-01
-1.26943E-01
-1.61853E-01
-1.78111E-01
-1.81521E-01
-2.00543E-01
-2.01087E-01
-1.78855E-01
-1.58630E-01
-1.48111E-01
-1.27165E-01
-9.91470E-02
-8.70670E-02
-8.78620E-02
-8.25180E-02
-6.23400E-02
-2.58830E-02
-1.70820E-02
-3.09270E-02
-3.47460E-02
-3.07940E-02
-3.07780E-02
-5.81230E-02
-6.10020E-02
-4.44520E-02
-4.04350E-02
-4.24730E-02
-1.46934E-01
-1.09090E-01
-1.19591E-01
-1.71128E-01
-2.12586E-01
-1.95286E-01
-1.80529E-01
-1.94149E-01
-1.96186E-01
-1.83722E-01
-1.70065E-01
-1.48238E-01
-1.39661E-01
-1.34275E-01
-1.06305E-01
-7.51990E-02
-4.80840E-02
-4.62980E-02
-4.07760E-02
-3.23620E-02
-2.88400E-02
-2.00560E-02
-2.17950E-02
-4.27460E-02
-4.29190E-02
-3.13400E-02
-5.56010E-02
-6.26580E-02
-4.53250E-02
 SCALARS measuredDisp12 float  1                   
LOOKUP_TABLE default
 3.66223E-01
 3.69460E-01
 3.69022E-01
 3.65718E-01
 3.78622E-01
 3.76618E-01
 3.79367E-01
 3.87752E-01
 3.89651E-01
 3.90239E-01
 3.98245E-01
 4.00479E-01
 4.03159E-01
 4.03971E-01
 4.03803E-01
 4.08565E-01
 4.08104E-01
 4.08794E-01
 4.05461E-01
 4.06453E-01
 4.01222E-01
 4.02796E-01
 4.07468E-01
 4.06976E-01
 4.04905E-01
 4.00005E-01
 4.07082E-01
 4.05897E-01
 4.06877E-01
 3.78992E-01
 3.79931E-01
 3.84896E-01
 3.84714E-01
 3.87207E-01
 3.84887E-01
 3.94386E-01
 3.97260E-01
 3.98753E-01
 4.04978E-01
 4.05506E-01
 4.07642E-01
 4.13852E-01
 4.20913E-01
 4.21570E-01
 4.15576E-01
 4.17792E-01
 4.16508E-01
 4.20685E-01
 4.22420E-01
 4.24991E-01
 4.21536E-01
 4.18178E-01
 4.17807E-01
 4.22469E-01
 4.23189E-01
 4.15276E-01
 4.15329E-01
 4.18828E-01
 3.86291E-01
 3.91331E-01
 3.86933E-01
 3.95381E-01
 3.98745E-01
 4.01900E-01
 4.07146E-01
 4.11601E-01
 4.18619E-01
 4.22277E-01
 4.24007E-01
 4.25285E-01
 4.26302E-01
 4.37002E-01
 4.37484E-01
 4.41222E-01
 4.49298E-01
 4.46234E-01
 4.41148E-01
 4.36462E-01
 4.35976E-01
 4.33500E-01
 4.37371E-01
 4.34334E-01
 4.32526E-01
 4.31035E-01
 4.32763E-01
 4.29224E-01
 4.27691E-01
 3.95356E-01
 4.02667E-01
 4.03574E-01
 4.05585E-01
 4.13123E-01
 4.19882E-01
 4.18171E-01
 4.23659E-01
 4.27892E-01
 4.29202E-01
 4.39684E-01
 4.44802E-01
 4.47539E-01
 4.53868E-01
 4.58326E-01
 4.61661E-01
 4.59961E-01
 4.62259E-01
 4.55879E-01
 4.58972E-01
 4.52593E-01
 4.51385E-01
 4.46128E-01
 4.45838E-01
 4.46206E-01
 4.48479E-01
 4.47925E-01
 4.45889E-01
 4.47526E-01
 4.20898E-01
 4.19287E-01
 4.19948E-01
 4.27560E-01
 4.27781E-01
 4.29576E-01
 4.32161E-01
 4.36823E-01
 4.45690E-01
 4.48355E-01
 4.60395E-01
 4.61514E-01
 4.66442E-01
 4.71967E-01
 4.68426E-01
 4.69840E-01
 4.71424E-01
 4.71790E-01
 4.68550E-01
 4.67065E-01
 4.67921E-01
 4.64860E-01
 4.60375E-01
 4.60653E-01
 4.61002E-01
 4.58929E-01
 4.57616E-01
 4.57889E-01
 4.57983E-01
 4.27334E-01
 4.29231E-01
 4.33246E-01
 4.37760E-01
 4.38351E-01
 4.41893E-01
 4.45619E-01
 4.48630E-01
 4.55734E-01
 4.69093E-01
 4.74828E-01
 4.80530E-01
 4.84126E-01
 4.82764E-01
 4.88899E-01
 4.88887E-01
 4.95282E-01
 4.99026E-01
 4.89571E-01
 4.82935E-01
 4.81731E-01
 4.75863E-01
 4.72438E-01
 4.69237E-01
 4.66543E-01
 4.69504E-01
 4.70872E-01
 4.69590E-01
 4.68953E-01
 4.39705E-01
 4.40322E-01
 4.45198E-01
 4.47560E-01
 4.50512E-01
 4.57055E-01
 4.63537E-01
 4.63689E-01
 4.72740E-01
 4.83639E-01
 4.89897E-01
 4.90388E-01
 4.91229E-01
 4.91520E-01
 4.90647E-01
 4.93756E-01
 5.01165E-01
 5.01399E-01
 5.07231E-01
 5.06330E-01
 5.01775E-01
 4.91135E-01
 4.83760E-01
 4.81802E-01
 4.84123E-01
 4.84800E-01
 4.79994E-01
 4.84436E-01
 4.85109E-01
 4.57776E-01
 4.57422E-01
 4.54836E-01
 4.57755E-01
 4.65317E-01
 4.68518E-01
 4.72150E-01
 4.79276E-01
 4.92256E-01
 4.96915E-01
 4.96542E-01
 4.94302E-01
 5.02088E-01
 4.95322E-01
 5.00474E-01
 5.00902E-01
 5.01818E-01
 5.04984E-01
 5.07501E-01
 5.07999E-01
 5.08063E-01
 5.08828E-01
 5.04710E-01
 4.95838E-01
 4.94354E-01
 4.96427E-01
 4.98028E-01
 4.94600E-01
 4.93990E-01
 4.73388E-01
 4.75158E-01
 4.75078E-01
 4.76255E-01
 4.77297E-01
 4.82622E-01
 4.84293E-01
 5.01363E-01
 5.07654E-01
 5.07483E-01
 5.07949E-01
 5.09756E-01
 5.10743E-01
 5.10762E-01
 5.11530E-01
 5.12441E-01
 5.17737E-01
 5.18230E-01
 5.15577E-01
 5.18135E-01
 5.19019E-01
 5.29834E-01
 5.21047E-01
 5.17164E-01
 5.09754E-01
 5.07157E-01
 5.04843E-01
 5.06560E-01
 5.10352E-01
 4.79040E-01
 4.81913E-01
 4.87773E-01
 4.85781E-01
 4.86728E-01
 4.93523E-01
 5.00969E-01
 5.09228E-01
 5.10856E-01
 5.14785E-01
 5.18076E-01
 5.17417E-01
 5.20448E-01
 5.21458E-01
 5.27633E-01
 5.22500E-01
 5.21296E-01
 5.26025E-01
 5.28174E-01
 5.31359E-01
 5.29312E-01
 5.31711E-01
 5.35260E-01
 5.35661E-01
 5.23694E-01
 5.22961E-01
 5.24235E-01
 5.26045E-01
 5.28189E-01
 4.99701E-01
 4.96831E-01
 5.01437E-01
 5.03913E-01
 5.06604E-01
 5.10188E-01
 5.12010E-01
 5.22820E-01
 5.21599E-01
 5.22944E-01
 5.25204E-01
 5.25175E-01
 5.30167E-01
 5.27932E-01
 5.29235E-01
 5.29757E-01
 5.28826E-01
 5.35569E-01
 5.38640E-01
 5.35373E-01
 5.34250E-01
 5.37259E-01
 5.41874E-01
 5.40094E-01
 5.36193E-01
 5.36106E-01
 5.38883E-01
 5.42131E-01
 5.45281E-01
 5.14162E-01
 5.09393E-01
 5.05474E-01
 5.11761E-01
 5.13076E-01
 5.09076E-01
 5.28119E-01
 5.31634E-01
 5.31698E-01
 5.32372E-01
 5.33453E-01
 5.35084E-01
 5.37567E-01
 5.39088E-01
 5.39357E-01
 5.37039E-01
 5.44599E-01
 5.41772E-01
 5.40505E-01
 5.44379E-01
 5.46626E-01
 5.46418E-01
 5.52128E-01
 5.51282E-01
 5.47235E-01
 5.48123E-01
 5.51331E-01
 5.55803E-01
 5.53826E-01
 5.26626E-01
 5.27685E-01
 5.28097E-01
 5.38571E-01
 5.39003E-01
 5.39551E-01
 5.38765E-01
 5.36640E-01
 5.37593E-01
 5.39830E-01
 5.41123E-01
 5.41877E-01
 5.45839E-01
 5.44374E-01
 5.42363E-01
 5.48516E-01
 5.52084E-01
 5.54010E-01
 5.57265E-01
 5.55107E-01
 5.54296E-01
 5.56141E-01
 5.55828E-01
 5.58436E-01
 5.63948E-01
 5.68558E-01
 5.69370E-01
 5.67753E-01
 5.69382E-01
 5.47585E-01
 5.47765E-01
 5.45702E-01
 5.48830E-01
 5.49795E-01
 5.51921E-01
 5.50764E-01
 5.47232E-01
 5.49715E-01
 5.49105E-01
 5.50130E-01
 5.56686E-01
 5.56261E-01
 5.57263E-01
 5.63875E-01
 5.60871E-01
 5.60018E-01
 5.62194E-01
 5.62343E-01
 5.63982E-01
 5.69588E-01
 5.68985E-01
 5.68798E-01
 5.76942E-01
 5.74095E-01
 5.78167E-01
 5.81568E-01
 5.83769E-01
 5.81128E-01
 5.59044E-01
 5.57393E-01
 5.61330E-01
 5.64744E-01
 5.62939E-01
 5.60101E-01
 5.56076E-01
 5.51985E-01
 5.52077E-01
 5.53039E-01
 5.55304E-01
 5.57543E-01
 5.59909E-01
 5.60804E-01
 5.68899E-01
 5.71336E-01
 5.70478E-01
 5.70588E-01
 5.73861E-01
 5.74151E-01
 5.73771E-01
 5.75068E-01
 5.75490E-01
 5.74858E-01
 5.88567E-01
 5.91354E-01
 5.93806E-01
 5.95359E-01
 5.97137E-01
 5.72830E-01
 5.71073E-01
 5.70418E-01
 5.74764E-01
 5.77184E-01
 5.69527E-01
 5.64454E-01
 5.53934E-01
 5.61053E-01
 5.64654E-01
 5.63779E-01
 5.68567E-01
 5.70977E-01
 5.75018E-01
 5.77093E-01
 5.75396E-01
 5.77309E-01
 5.80594E-01
 5.81765E-01
 5.81293E-01
 5.80816E-01
 5.82451E-01
 5.81279E-01
 5.99213E-01
 6.06832E-01
 6.10667E-01
 6.09584E-01
 6.15718E-01
 6.13632E-01
 5.87456E-01
 5.87302E-01
 5.88605E-01
 5.87593E-01
 5.87706E-01
 5.90822E-01
 5.92971E-01
 5.63894E-01
 5.70216E-01
 5.69702E-01
 5.72060E-01
 5.79056E-01
 5.78310E-01
 5.80962E-01
 5.85194E-01
 5.82741E-01
 5.82889E-01
 5.85714E-01
 5.87301E-01
 5.85105E-01
 5.86970E-01
 5.84248E-01
 6.04066E-01
 6.17494E-01
 6.20763E-01
 6.23490E-01
 6.26406E-01
 6.29240E-01
 6.28941E-01
 5.98737E-01
 5.95495E-01
 5.94009E-01
 5.98173E-01
 5.99313E-01
 6.00621E-01
 6.02367E-01
 5.99493E-01
 5.88409E-01
 5.81518E-01
 5.82629E-01
 5.84292E-01
 5.84928E-01
 5.87405E-01
 5.90599E-01
 5.91430E-01
 5.90293E-01
 5.90845E-01
 5.92661E-01
 5.93227E-01
 5.93030E-01
 6.15180E-01
 6.23142E-01
 6.27383E-01
 6.30608E-01
 6.35709E-01
 6.37568E-01
 6.41791E-01
 6.42632E-01
 6.10057E-01
 6.18155E-01
 6.22574E-01
 6.24459E-01
 6.17975E-01
 6.19127E-01
 6.15451E-01
 6.12491E-01
 6.11303E-01
 6.05888E-01
 6.02478E-01
 5.98231E-01
 5.96423E-01
 5.96253E-01
 6.00314E-01
 6.01418E-01
 6.01987E-01
 5.97973E-01
 5.98634E-01
 6.14392E-01
 6.20732E-01
 6.28397E-01
 6.35215E-01
 6.38571E-01
 6.44321E-01
 6.47145E-01
 6.55358E-01
 6.58310E-01
 6.58494E-01
 6.28854E-01
 6.32161E-01
 6.30474E-01
 6.29206E-01
 6.33183E-01
 6.33405E-01
 6.33788E-01
 6.29622E-01
 6.21812E-01
 6.16157E-01
 6.14427E-01
 6.15689E-01
 6.06454E-01
 6.05024E-01
 6.04581E-01
 6.08919E-01
 6.11751E-01
 6.14522E-01
 6.22385E-01
 6.31558E-01
 6.34214E-01
 6.40994E-01
 6.51955E-01
 6.53502E-01
 6.72311E-01
 6.66054E-01
 6.67005E-01
 6.65555E-01
 6.67521E-01
 6.45261E-01
 6.41332E-01
 6.42255E-01
 6.45497E-01
 6.44958E-01
 6.47903E-01
 6.40970E-01
 6.40096E-01
 6.38156E-01
 6.38163E-01
 6.35134E-01
 6.32560E-01
 6.27737E-01
 6.20447E-01
 6.22460E-01
 6.27106E-01
 6.31785E-01
 6.37402E-01
 6.43446E-01
 6.46885E-01
 6.50570E-01
 6.58248E-01
 6.61477E-01
 6.67059E-01
 6.68547E-01
 6.74072E-01
 6.75748E-01
 6.74826E-01
 6.81865E-01
 SCALARS predictedDisp11 float  1                  
LOOKUP_TABLE default
-1.41908E-01
-1.36977E-01
-1.32594E-01
-1.27857E-01
-1.22814E-01
-1.17463E-01
-1.11961E-01
-1.06284E-01
-1.00320E-01
-9.42713E-02
-8.80912E-02
-8.15549E-02
-7.48334E-02
-6.82039E-02
-6.16042E-02
-5.49207E-02
-4.80716E-02
-4.12840E-02
-3.47337E-02
-2.85199E-02
-2.27324E-02
-1.70748E-02
-1.12342E-02
-5.14140E-03
 6.56514E-04
 6.07745E-03
 1.14400E-02
 1.65266E-02
 2.16048E-02
-1.39414E-01
-1.35320E-01
-1.30580E-01
-1.24001E-01
-1.18307E-01
-1.13437E-01
-1.07097E-01
-1.01424E-01
-9.62071E-02
-8.98557E-02
-8.36976E-02
-7.81150E-02
-7.22658E-02
-6.62325E-02
-5.96108E-02
-5.33212E-02
-4.74776E-02
-4.15983E-02
-3.54853E-02
-2.94639E-02
-2.31159E-02
-1.62231E-02
-1.05196E-02
-5.55906E-03
-2.47975E-04
 6.25601E-03
 1.22978E-02
 1.75681E-02
 2.22458E-02
-1.36294E-01
-1.32202E-01
-1.26101E-01
-1.20281E-01
-1.14502E-01
-1.08765E-01
-1.03136E-01
-9.74938E-02
-9.18725E-02
-8.62242E-02
-8.05464E-02
-7.49871E-02
-6.94669E-02
-6.37316E-02
-5.78955E-02
-5.20888E-02
-4.64157E-02
-4.07472E-02
-3.49541E-02
-2.89373E-02
-2.27013E-02
-1.65632E-02
-1.07672E-02
-5.33409E-03
 2.10649E-04
 5.90370E-03
 1.14477E-02
 1.65919E-02
 2.20322E-02
-1.31566E-01
-1.25449E-01
-1.20870E-01
-1.15677E-01
-1.10210E-01
-1.04674E-01
-9.91464E-02
-9.36690E-02
-8.82179E-02
-8.27922E-02
-7.74139E-02
-7.20745E-02
-6.67330E-02
-6.13648E-02
-5.59539E-02
-5.05384E-02
-4.51011E-02
-3.95923E-02
-3.39514E-02
-2.81647E-02
-2.23006E-02
-1.64671E-02
-1.07760E-02
-5.19953E-03
 3.23604E-04
 5.82007E-03
 1.11810E-02
 1.61681E-02
 2.18799E-02
-1.27605E-01
-1.21672E-01
-1.16696E-01
-1.11469E-01
-1.06110E-01
-1.00714E-01
-9.53270E-02
-8.99668E-02
-8.46568E-02
-7.94099E-02
-7.42238E-02
-6.90748E-02
-6.39592E-02
-5.88909E-02
-5.38566E-02
-4.88092E-02
-4.36858E-02
-3.84168E-02
-3.29914E-02
-2.74706E-02
-2.18924E-02
-1.62895E-02
-1.07103E-02
-5.17361E-03
 3.43276E-04
 5.86408E-03
 1.14050E-02
 1.72681E-02
 2.20232E-02
-1.24148E-01
-1.19555E-01
-1.13247E-01
-1.07624E-01
-1.02223E-01
-9.68802E-02
-9.15571E-02
-8.62714E-02
-8.10406E-02
-7.58704E-02
-7.07618E-02
-6.57589E-02
-6.09104E-02
-5.61977E-02
-5.15615E-02
-4.69366E-02
-4.22594E-02
-3.74600E-02
-3.24492E-02
-2.71782E-02
-2.17442E-02
-1.62806E-02
-1.08155E-02
-5.34339E-03
 1.35740E-04
 5.62856E-03
 1.11179E-02
 1.62493E-02
 2.16444E-02
-1.19606E-01
-1.13854E-01
-1.08749E-01
-1.03488E-01
-9.82374E-02
-9.29977E-02
-8.77669E-02
-8.25446E-02
-7.73257E-02
-7.21477E-02
-6.71265E-02
-6.23721E-02
-5.78653E-02
-5.35090E-02
-4.92297E-02
-4.49824E-02
-4.07376E-02
-3.64430E-02
-3.19661E-02
-2.71401E-02
-2.19586E-02
-1.65898E-02
-1.11674E-02
-5.73875E-03
-3.06493E-04
 5.14580E-03
 1.06272E-02
 1.61180E-02
 2.13003E-02
-1.15501E-01
-1.09423E-01
-1.04585E-01
-9.94441E-02
-9.42349E-02
-8.90545E-02
-8.39008E-02
-7.87338E-02
-7.35850E-02
-6.85925E-02
-6.38965E-02
-5.94838E-02
-5.52520E-02
-5.11289E-02
-4.70717E-02
-4.30568E-02
-3.90540E-02
-3.50141E-02
-3.08877E-02
-2.66054E-02
-2.20019E-02
-1.69582E-02
-1.16264E-02
-6.24402E-03
-9.21630E-04
 4.36436E-03
 9.74637E-03
 1.54537E-02
 2.07172E-02
-1.12328E-01
-1.07435E-01
-1.01322E-01
-9.57099E-02
-9.03471E-02
-8.51206E-02
-7.99679E-02
-7.49039E-02
-7.00451E-02
-6.54822E-02
-6.11715E-02
-5.70207E-02
-5.29753E-02
-4.90093E-02
-4.50983E-02
-4.12186E-02
-3.73330E-02
-3.34021E-02
-2.94210E-02
-2.53849E-02
-2.11981E-02
-1.67033E-02
-1.18315E-02
-6.71283E-03
-1.56736E-03
 3.49456E-03
 8.49533E-03
 1.35677E-02
 1.97526E-02
-1.08523E-01
-1.03095E-01
-9.73977E-02
-9.18685E-02
-8.65137E-02
-8.13146E-02
-7.62482E-02
-7.14063E-02
-6.68893E-02
-6.26661E-02
-5.86219E-02
-5.46801E-02
-5.08148E-02
-4.70066E-02
-4.32321E-02
-3.94594E-02
-3.56568E-02
-3.18011E-02
-2.78734E-02
-2.38636E-02
-1.97961E-02
-1.56565E-02
-1.13258E-02
-6.68420E-03
-1.77279E-03
 3.23996E-03
 8.25924E-03
 1.33210E-02
 1.96067E-02
-1.04867E-01
-9.84945E-02
-9.35061E-02
-8.81932E-02
-8.29352E-02
-7.78413E-02
-7.29720E-02
-6.83822E-02
-6.41129E-02
-6.00953E-02
-5.62333E-02