# vtk DataFile Version 2.0
Output of NLACE
ASCII
DATASET UNSTRUCTURED_GRID
POINTS          216 FLOAT
 0.000000E+00  0.000000E+00  0.000000E+00
 2.000000E+00  0.000000E+00  0.000000E+00
 4.000000E+00  0.000000E+00  0.000000E+00
 6.000000E+00  0.000000E+00  0.000000E+00
 8.000000E+00  0.000000E+00  0.000000E+00
 1.000000E+01  0.000000E+00  0.000000E+00
 0.000000E+00  2.000000E+00  0.000000E+00
 2.000000E+00  2.000000E+00  0.000000E+00
 4.000000E+00  2.000000E+00  0.000000E+00
 6.000000E+00  2.000000E+00  0.000000E+00
 8.000000E+00  2.000000E+00  0.000000E+00
 1.000000E+01  2.000000E+00  0.000000E+00
 0.000000E+00  4.000000E+00  0.000000E+00
 2.000000E+00  4.000000E+00  0.000000E+00
 4.000000E+00  4.000000E+00  0.000000E+00
 6.000000E+00  4.000000E+00  0.000000E+00
 8.000000E+00  4.000000E+00  0.000000E+00
 1.000000E+01  4.000000E+00  0.000000E+00
 0.000000E+00  6.000000E+00  0.000000E+00
 2.000000E+00  6.000000E+00  0.000000E+00
 4.000000E+00  6.000000E+00  0.000000E+00
 6.000000E+00  6.000000E+00  0.000000E+00
 8.000000E+00  6.000000E+00  0.000000E+00
 1.000000E+01  6.000000E+00  0.000000E+00
 0.000000E+00  8.000000E+00  0.000000E+00
 2.000000E+00  8.000000E+00  0.000000E+00
 4.000000E+00  8.000000E+00  0.000000E+00
 6.000000E+00  8.000000E+00  0.000000E+00
 8.000000E+00  8.000000E+00  0.000000E+00
 1.000000E+01  8.000000E+00  0.000000E+00
 0.000000E+00  1.000000E+01  0.000000E+00
 2.000000E+00  1.000000E+01  0.000000E+00
 4.000000E+00  1.000000E+01  0.000000E+00
 6.000000E+00  1.000000E+01  0.000000E+00
 8.000000E+00  1.000000E+01  0.000000E+00
 1.000000E+01  1.000000E+01  0.000000E+00
 0.000000E+00  0.000000E+00 -2.000000E+00
 2.000000E+00  0.000000E+00 -2.000000E+00
 4.000000E+00  0.000000E+00 -2.000000E+00
 6.000000E+00  0.000000E+00 -2.000000E+00
 8.000000E+00  0.000000E+00 -2.000000E+00
 1.000000E+01  0.000000E+00 -2.000000E+00
 0.000000E+00  2.000000E+00 -2.000000E+00
 2.000000E+00  2.000000E+00 -2.000000E+00
 4.000000E+00  2.000000E+00 -2.000000E+00
 6.000000E+00  2.000000E+00 -2.000000E+00
 8.000000E+00  2.000000E+00 -2.000000E+00
 1.000000E+01  2.000000E+00 -2.000000E+00
 0.000000E+00  4.000000E+00 -2.000000E+00
 2.000000E+00  4.000000E+00 -2.000000E+00
 4.000000E+00  4.000000E+00 -2.000000E+00
 6.000000E+00  4.000000E+00 -2.000000E+00
 8.000000E+00  4.000000E+00 -2.000000E+00
 1.000000E+01  4.000000E+00 -2.000000E+00
 0.000000E+00  6.000000E+00 -2.000000E+00
 2.000000E+00  6.000000E+00 -2.000000E+00
 4.000000E+00  6.000000E+00 -2.000000E+00
 6.000000E+00  6.000000E+00 -2.000000E+00
 8.000000E+00  6.000000E+00 -2.000000E+00
 1.000000E+01  6.000000E+00 -2.000000E+00
 0.000000E+00  8.000000E+00 -2.000000E+00
 2.000000E+00  8.000000E+00 -2.000000E+00
 4.000000E+00  8.000000E+00 -2.000000E+00
 6.000000E+00  8.000000E+00 -2.000000E+00
 8.000000E+00  8.000000E+00 -2.000000E+00
 1.000000E+01  8.000000E+00 -2.000000E+00
 0.000000E+00  1.000000E+01 -2.000000E+00
 2.000000E+00  1.000000E+01 -2.000000E+00
 4.000000E+00  1.000000E+01 -2.000000E+00
 6.000000E+00  1.000000E+01 -2.000000E+00
 8.000000E+00  1.000000E+01 -2.000000E+00
 1.000000E+01  1.000000E+01 -2.000000E+00
 0.000000E+00  0.000000E+00 -4.000000E+00
 2.000000E+00  0.000000E+00 -4.000000E+00
 4.000000E+00  0.000000E+00 -4.000000E+00
 6.000000E+00  0.000000E+00 -4.000000E+00
 8.000000E+00  0.000000E+00 -4.000000E+00
 1.000000E+01  0.000000E+00 -4.000000E+00
 0.000000E+00  2.000000E+00 -4.000000E+00
 2.000000E+00  2.000000E+00 -4.000000E+00
 4.000000E+00  2.000000E+00 -4.000000E+00
 6.000000E+00  2.000000E+00 -4.000000E+00
 8.000000E+00  2.000000E+00 -4.000000E+00
 1.000000E+01  2.000000E+00 -4.000000E+00
 0.000000E+00  4.000000E+00 -4.000000E+00
 2.000000E+00  4.000000E+00 -4.000000E+00
 4.000000E+00  4.000000E+00 -4.000000E+00
 6.000000E+00  4.000000E+00 -4.000000E+00
 8.000000E+00  4.000000E+00 -4.000000E+00
 1.000000E+01  4.000000E+00 -4.000000E+00
 0.000000E+00  6.000000E+00 -4.000000E+00
 2.000000E+00  6.000000E+00 -4.000000E+00
 4.000000E+00  6.000000E+00 -4.000000E+00
 6.000000E+00  6.000000E+00 -4.000000E+00
 8.000000E+00  6.000000E+00 -4.000000E+00
 1.000000E+01  6.000000E+00 -4.000000E+00
 0.000000E+00  8.000000E+00 -4.000000E+00
 2.000000E+00  8.000000E+00 -4.000000E+00
 4.000000E+00  8.000000E+00 -4.000000E+00
 6.000000E+00  8.000000E+00 -4.000000E+00
 8.000000E+00  8.000000E+00 -4.000000E+00
 1.000000E+01  8.000000E+00 -4.000000E+00
 0.000000E+00  1.000000E+01 -4.000000E+00
 2.000000E+00  1.000000E+01 -4.000000E+00
 4.000000E+00  1.000000E+01 -4.000000E+00
 6.000000E+00  1.000000E+01 -4.000000E+00
 8.000000E+00  1.000000E+01 -4.000000E+00
 1.000000E+01  1.000000E+01 -4.000000E+00
 0.000000E+00  0.000000E+00 -6.000000E+00
 2.000000E+00  0.000000E+00 -6.000000E+00
 4.000000E+00  0.000000E+00 -6.000000E+00
 6.000000E+00  0.000000E+00 -6.000000E+00
 8.000000E+00  0.000000E+00 -6.000000E+00
 1.000000E+01  0.000000E+00 -6.000000E+00
 0.000000E+00  2.000000E+00 -6.000000E+00
 2.000000E+00  2.000000E+00 -6.000000E+00
 4.000000E+00  2.000000E+00 -6.000000E+00
 6.000000E+00  2.000000E+00 -6.000000E+00
 8.000000E+00  2.000000E+00 -6.000000E+00
 1.000000E+01  2.000000E+00 -6.000000E+00
 0.000000E+00  4.000000E+00 -6.000000E+00
 2.000000E+00  4.000000E+00 -6.000000E+00
 4.000000E+00  4.000000E+00 -6.000000E+00
 6.000000E+00  4.000000E+00 -6.000000E+00
 8.000000E+00  4.000000E+00 -6.000000E+00
 1.000000E+01  4.000000E+00 -6.000000E+00
 0.000000E+00  6.000000E+00 -6.000000E+00
 2.000000E+00  6.000000E+00 -6.000000E+00
 4.000000E+00  6.000000E+00 -6.000000E+00
 6.000000E+00  6.000000E+00 -6.000000E+00
 8.000000E+00  6.000000E+00 -6.000000E+00
 1.000000E+01  6.000000E+00 -6.000000E+00
 0.000000E+00  8.000000E+00 -6.000000E+00
 2.000000E+00  8.000000E+00 -6.000000E+00
 4.000000E+00  8.000000E+00 -6.000000E+00
 6.000000E+00  8.000000E+00 -6.000000E+00
 8.000000E+00  8.000000E+00 -6.000000E+00
 1.000000E+01  8.000000E+00 -6.000000E+00
 0.000000E+00  1.000000E+01 -6.000000E+00
 2.000000E+00  1.000000E+01 -6.000000E+00
 4.000000E+00  1.000000E+01 -6.000000E+00
 6.000000E+00  1.000000E+01 -6.000000E+00
 8.000000E+00  1.000000E+01 -6.000000E+00
 1.000000E+01  1.000000E+01 -6.000000E+00
 0.000000E+00  0.000000E+00 -8.000000E+00
 2.000000E+00  0.000000E+00 -8.000000E+00
 4.000000E+00  0.000000E+00 -8.000000E+00
 6.000000E+00  0.000000E+00 -8.000000E+00
 8.000000E+00  0.000000E+00 -8.000000E+00
 1.000000E+01  0.000000E+00 -8.000000E+00
 0.000000E+00  2.000000E+00 -8.000000E+00
 2.000000E+00  2.000000E+00 -8.000000E+00
 4.000000E+00  2.000000E+00 -8.000000E+00
 6.000000E+00  2.000000E+00 -8.000000E+00
 8.000000E+00  2.000000E+00 -8.000000E+00
 1.000000E+01  2.000000E+00 -8.000000E+00
 0.000000E+00  4.000000E+00 -8.000000E+00
 2.000000E+00  4.000000E+00 -8.000000E+00
 4.000000E+00  4.000000E+00 -8.000000E+00
 6.000000E+00  4.000000E+00 -8.000000E+00
 8.000000E+00  4.000000E+00 -8.000000E+00
 1.000000E+01  4.000000E+00 -8.000000E+00
 0.000000E+00  6.000000E+00 -8.000000E+00
 2.000000E+00  6.000000E+00 -8.000000E+00
 4.000000E+00  6.000000E+00 -8.000000E+00
 6.000000E+00  6.000000E+00 -8.000000E+00
 8.000000E+00  6.000000E+00 -8.000000E+00
 1.000000E+01  6.000000E+00 -8.000000E+00
 0.000000E+00  8.000000E+00 -8.000000E+00
 2.000000E+00  8.000000E+00 -8.000000E+00
 4.000000E+00  8.000000E+00 -8.000000E+00
 6.000000E+00  8.000000E+00 -8.000000E+00
 8.000000E+00  8.000000E+00 -8.000000E+00
 1.000000E+01  8.000000E+00 -8.000000E+00
 0.000000E+00  1.000000E+01 -8.000000E+00
 2.000000E+00  1.000000E+01 -8.000000E+00
 4.000000E+00  1.000000E+01 -8.000000E+00
 6.000000E+00  1.000000E+01 -8.000000E+00
 8.000000E+00  1.000000E+01 -8.000000E+00
 1.000000E+01  1.000000E+01 -8.000000E+00
 0.000000E+00  0.000000E+00 -1.000000E+01
 2.000000E+00  0.000000E+00 -1.000000E+01
 4.000000E+00  0.000000E+00 -1.000000E+01
 6.000000E+00  0.000000E+00 -1.000000E+01
 8.000000E+00  0.000000E+00 -1.000000E+01
 1.000000E+01  0.000000E+00 -1.000000E+01
 0.000000E+00  2.000000E+00 -1.000000E+01
 2.000000E+00  2.000000E+00 -1.000000E+01
 4.000000E+00  2.000000E+00 -1.000000E+01
 6.000000E+00  2.000000E+00 -1.000000E+01
 8.000000E+00  2.000000E+00 -1.000000E+01
 1.000000E+01  2.000000E+00 -1.000000E+01
 0.000000E+00  4.000000E+00 -1.000000E+01
 2.000000E+00  4.000000E+00 -1.000000E+01
 4.000000E+00  4.000000E+00 -1.000000E+01
 6.000000E+00  4.000000E+00 -1.000000E+01
 8.000000E+00  4.000000E+00 -1.000000E+01
 1.000000E+01  4.000000E+00 -1.000000E+01
 0.000000E+00  6.000000E+00 -1.000000E+01
 2.000000E+00  6.000000E+00 -1.000000E+01
 4.000000E+00  6.000000E+00 -1.000000E+01
 6.000000E+00  6.000000E+00 -1.000000E+01
 8.000000E+00  6.000000E+00 -1.000000E+01
 1.000000E+01  6.000000E+00 -1.000000E+01
 0.000000E+00  8.000000E+00 -1.000000E+01
 2.000000E+00  8.000000E+00 -1.000000E+01
 4.000000E+00  8.000000E+00 -1.000000E+01
 6.000000E+00  8.000000E+00 -1.000000E+01
 8.000000E+00  8.000000E+00 -1.000000E+01
 1.000000E+01  8.000000E+00 -1.000000E+01
 0.000000E+00  1.000000E+01 -1.000000E+01
 2.000000E+00  1.000000E+01 -1.000000E+01
 4.000000E+00  1.000000E+01 -1.000000E+01
 6.000000E+00  1.000000E+01 -1.000000E+01
 8.000000E+00  1.000000E+01 -1.000000E+01
 1.000000E+01  1.000000E+01 -1.000000E+01
CELLS          625        3125
4    0   36   42   37
4    7   42   43   37
4    7   42   37    0
4    7    0    6   42
4    1    0    7   37
4    7   37   43   44
4    2   37   44   38
4    2   37    7   44
4    1   37    7    2
4    8    7   44    2
4    2   38   44   39
4    9   44   45   39
4    9   44   39    2
4    9    2    8   44
4    3    2    9   39
4    9   39   45   46
4    4   39   46   40
4    4   39    9   46
4    3   39    9    4
4   10    9   46    4
4    4   40   46   41
4   11   46   47   41
4   11   46   41    4
4   11    4   10   46
4    5    4   11   41
4   12   42   48   49
4    7   42   49   43
4    7   42   12   49
4    6   42   12    7
4   13   12   49    7
4    7   43   49   44
4   14   49   50   44
4   14   49   44    7
4   14    7   13   49
4    8    7   14   44
4   14   44   50   51
[...]
POINT_DATA          216
 SCALARS measuredDisp11 float  1                   
LOOKUP_TABLE default
 0.00000E+00
 1.04687E-01
 2.09374E-01
 3.14061E-01
 4.18748E-01
 5.23435E-01
 0.00000E+00
 1.04687E-01
 2.09374E-01
 3.14061E-01
 4.18748E-01
 5.23435E-01
 0.00000E+00
 1.04687E-01
 2.09374E-01
 3.14061E-01
 4.18748E-01
 5.23435E-01
 0.00000E+00
 1.04687E-01
 2.09374E-01
 3.14061E-01
 4.18748E-01
 5.23435E-01
 0.00000E+00
 1.04687E-01
 2.09374E-01
 3.14061E-01
 4.18748E-01
 5.23435E-01
 0.00000E+00
 1.04687E-01
 2.09374E-01
 3.14061E-01
 4.18748E-01
 5.23435E-01
 0.00000E+00
 1.04687E-01
 2.09374E-01
 3.14061E-01
 4.18748E-01
 5.23435E-01
 0.00000E+00
 1.04687E-01
 2.09374E-01
 3.14061E-01
 4.18748E-01
 5.23435E-01
 0.00000E+00
 1.04687E-01
 2.09374E-01
 3.14061E-01
 4.18748E-01
 5.23435E-01
 0.00000E+00
 1.04687E-01
 2.09374E-01
 3.14061E-01
 4.18748E-01
 5.23435E-01
 0.00000E+00
 1.04687E-01
 2.09374E-01
 3.14061E-01
 4.18748E-01
 5.23435E-01
 0.00000E+00
 1.04687E-01
 2.09374E-01
 3.14061E-01
 4.18748E-01
 5.23435E-01
 0.00000E+00
 1.04687E-01
 2.09374E-01
 3.14061E-01
 4.18748E-01
 5.23435E-01
 0.00000E+00
 1.04687E-01
 2.09374E-01
 3.14061E-01
 4.18748E-01
 5.23435E-01
 0.00000E+00
 1.04687E-01
 2.09374E-01
 3.14061E-01
 4.18748E-01
 5.23435E-01
 0.00000E+00
 1.04687E-01
 2.09374E-01
 3.14061E-01
 4.18748E-01
 5.23435E-01
 0.00000E+00
 1.04687E-01
 2.09374E-01
 3.14061E-01
 4.18748E-01
 5.23435E-01
 0.00000E+00
 1.04687E-01
 2.09374E-01
 3.14061E-01
 4.18748E-01
 5.23435E-01
 0.00000E+00
 1.04687E-01
 2.09374E-01
 3.14061E-01
 4.18748E-01
 5.23435E-01
 0.00000E+00
 1.04687E-01
 2.09374E-01
 3.14061E-01
 4.18748E-01
 5.23435E-01
 0.00000E+00
 1.04687E-01
 2.09374E-01
 3.14061E-01
 4.18748E-01
 5.23435E-01
 0.00000E+00
 1.04687E-01
 2.09374E-01
 3.14061E-01
 4.18748E-01
 5.23435E-01
 0.00000E+00
 1.04687E-01
 2.09374E-01
 3.14061E-01
 4.18748E-01
 5.23435E-01
 0.00000E+00
 1.04687E-01
 2.09374E-01
 3.14061E-01
 4.18748E-01
 5.23435E-01
 0.00000E+00
 1.04687E-01
 2.09374E-01
 3.14061E-01
 4.18748E-01
 5.23435E-01
 0.00000E+00
 1.04687E-01
 2.09374E-01
 3.14061E-01
 4.18748E-01
 5.23435E-01
 0.00000E+00
 1.04687E-01
 2.09374E-01
 3.14061E-01
 4.18748E-01
 5.23435E-01
 0.00000E+00
 1.04687E-01
 2.09374E-01
 3.14061E-01
 4.18748E-01
 5.23435E-01
 0.00000E+00
 1.04687E-01
 2.09374E-01
 3.14061E-01
 4.18748E-01
 5.23435E-01
 0.00000E+00
 1.04687E-01
 2.09374E-01
 3.14061E-01
 4.18748E-01
 5.23435E-01
 0.00000E+00
 1.04687E-01
 2.09374E-01
 3.14061E-01
 4.18748E-01
 5.23435E-01
 0.00000E+00
 1.04687E-01
 2.09374E-01
 3.14061E-01
 4.18748E-01
 5.23435E-01
 0.00000E+00
 1.04687E-01
 2.09374E-01
 3.14061E-01
 4.18748E-01
 5.23435E-01
 0.00000E+00
 1.04687E-01
 2.09374E-01
 3.14061E-01
 4.18748E-01
 5.23435E-01
 0.00000E+00
 1.04687E-01
 2.09374E-01
 3.14061E-01
 4.18748E-01
 5.23435E-01
 0.00000E+00
 1.04687E-01
 2.09374E-01
 3.14061E-01
 4.18748E-01
 5.23435E-01
 SCALARS measuredDisp12 float  1                   
LOOKUP_TABLE default
 0.00000E+00
 0.00000E+00
 0.00000E+00
 0.00000E+00
 0.00000E+00
 0.00000E+00
 1.04687E-01
 1.04687E-01
 1.04687E-01
 1.04687E-01
 1.04687E-01
 1.04687E-01
 2.09374E-01
 2.09374E-01
 2.09374E-01
 2.09374E-01
 2.09374E-01
 2.09374E-01
 3.14061E-01
 3.14061E-01
 3.14061E-01
 3.14061E-01
 3.14061E-01
 3.14061E-01
 4.18748E-01
 4.18748E-01
 4.18748E-01
 4.18748E-01
 4.18748E-01
 4.18748E-01
 5.23435E-01
 5.23435E-01
 5.23435E-01
 5.23435E-01
 5.23435E-01
 5.23435E-01
 0.00000E+00
 0.00000E+00
 0.00000E+00
 0.00000E+00
 0.00000E+00
 0.00000E+00
 1.04687E-01
 1.04687E-01
 1.04687E-01
 1.04687E-01
 1.04687E-01
 1.04687E-01
 2.09374E-01
 2.09374E-01
 2.09374E-01
 2.09374E-01
 2.09374E-01
 2.09374E-01
 3.14061E-01
 3.14061E-01
 3.14061E-01
 3.14061E-01
 3.14061E-01
 3.14061E-01
 4.18748E-01
 4.18748E-01
 4.18748E-01
 4.18748E-01
 4.18748E-01
 4.18748E-01
 5.23435E-01
 5.23435E-01
 5.23435E-01
 5.23435E-01
 5.23435E-01
 5.23435E-01
 0.00000E+00
 0.00000E+00
 0.00000E+00
 0.00000E+00
 0.00000E+00
 0.00000E+00
 1.04687E-01
 1.04687E-01
 1.04687E-01
 1.04687E-01
 1.04687E-01
 1.04687E-01
 2.09374E-01
 2.09374E-01
 2.09374E-01
 2.09374E-01
 2.09374E-01
 2.09374E-01
 3.14061E-01
 3.14061E-01
 3.14061E-01
 3.14061E-01
 3.14061E-01
 3.14061E-01
 4.18748E-01
 4.18748E-01
 4.18748E-01
 4.18748E-01
 4.18748E-01
 4.18748E-01
 5.23435E-01
 5.23435E-01
 5.23435E-01
 5.23435E-01
 5.23435E-01
 5.23435E-01
 0.00000E+00
 0.00000E+00
 0.00000E+00
 0.00000E+00
 0.00000E+00
 0.00000E+00
 1.04687E-01
 1.04687E-01
 1.04687E-01
 1.04687E-01
 1.04687E-01
 1.04687E-01
 2.09374E-01
 2.09374E-01
 2.09374E-01
 2.09374E-01
 2.09374E-01
 2.09374E-01
 3.14061E-01
 3.14061E-01
 3.14061E-01
 3.14061E-01
 3.14061E-01
 3.14061E-01
 4.18748E-01
 4.18748E-01
 4.18748E-01
 4.18748E-01
 4.18748E-01
 4.18748E-01
 5.23435E-01
 5.23435E-01
 5.23435E-01
 5.23435E-01
 5.23435E-01
 5.23435E-01
 0.00000E+00
 0.00000E+00
 0.00000E+00
 0.00000E+00
 0.00000E+00
 0.00000E+00
 1.04687E-01
 1.04687E-01
 1.04687E-01
 1.04687E-01
 1.04687E-01
 1.04687E-01
 2.09374E-01
 2.09374E-01
 2.09374E-01
 2.09374E-01
 2.09374E-01
 2.09374E-01
 3.14061E-01
 3.14061E-01
 3.14061E-01
 3.14061E-01
 3.14061E-01
 3.14061E-01
 4.18748E-01
 4.18748E-01
 4.18748E-01
 4.18748E-01
 4.18748E-01
 4.18748E-01
 5.23435E-01
 5.23435E-01
 5.23435E-01
 5.23435E-01
 5.23435E-01
 5.23435E-01
 0.00000E+00
 0.00000E+00
 0.00000E+00
 0.00000E+00
 0.00000E+00
 0.00000E+00
 1.04687E-01
 1.04687E-01
 1.04687E-01
 1.04687E-01
 1.04687E-01
 1.04687E-01
 2.09374E-01
 2.09374E-01
 2.09374E-01
 2.09374E-01
 2.09374E-01
 2.09374E-01
 3.14061E-01
 3.14061E-01
 3.14061E-01
 3.14061E-01
 3.14061E-01
 3.14061E-01
 4.18748E-01
 4.18748E-01
 4.18748E-01
 4.18748E-01
 4.18748E-01
 4.18748E-01
 5.23435E-01
 5.23435E-01
 5.23435E-01
 5.23435E-01
 5.23435E-01
 5.23435E-01
 SCALARS measuredDisp13 float  1                   
LOOKUP_TABLE default
 0.00000E+00
 0.00000E+00
 0.00000E+00
 0.00000E+00
 0.00000E+00
 0.00000E+00
 0.00000E+00
 0.00000E+00
 0.00000E+00
 0.00000E+00
 0.00000E+00
 0.00000E+00
 0.00000E+00
 0.00000E+00
 0.00000E+00
 0.00000E+00
 0.00000E+00
 0.00000E+00
 0.00000E+00
 0.00000E+00
 0.00000E+00
 0.00000E+00
 0.00000E+00
 0.00000E+00
 0.00000E+00
 0.00000E+00
 0.00000E+00
 0.00000E+00
 0.00000E+00
 0.00000E+00
 0.00000E+00
 0.00000E+00
 0.00000E+00
 0.00000E+00
 0.00000E+00
 0.00000E+00
 1.94012E-01
 1.94012E-01
 1.94012E-01
 1.94012E-01
 1.94012E-01
 1.94012E-01
 1.94012E-01
 1.94012E-01
 1.94012E-01
 1.94012E-01
 1.94012E-01
 1.94012E-01
 1.94012E-01
 1.94012E-01
 1.94012E-01
 1.94012E-01
 1.94012E-01
 1.94012E-01
 1.94012E-01
 1.94012E-01
 1.94012E-01
 1.94012E-01
 1.94012E-01
 1.94012E-01
 1.94012E-01
 1.94012E-01
 1.94012E-01
 1.94012E-01
 1.94012E-01
 1.94012E-01
 1.94012E-01
 1.94012E-01
 1.94012E-01
 1.94012E-01
 1.94012E-01
 1.94012E-01
 3.88024E-01
 3.88024E-01
 3.88024E-01
 3.88024E-01
 3.88024E-01
 3.88024E-01
 3.88024E-01
 3.88024E-01
 3.88024E-01
 3.88024E-01
 3.88024E-01
 3.88024E-01
 3.88024E-01
 3.88024E-01
 3.88024E-01
 3.88024E-01
 3.88024E-01
 3.88024E-01
 3.88024E-01
 3.88024E-01
 3.88024E-01
 3.88024E-01
 3.88024E-01
 3.88024E-01
 3.88024E-01
 3.88024E-01
 3.88024E-01
 3.88024E-01
 3.88024E-01
 3.88024E-01
 3.88024E-01
 3.88024E-01
 3.88024E-01
 3.88024E-01
 3.88024E-01
 3.88024E-01
 5.82035E-01
 5.82035E-01
 5.82035E-01
 5.82035E-01
 5.82035E-01
 5.82035E-01
 5.82035E-01
 5.82035E-01
 5.82035E-01
 5.82035E-01
 5.82035E-01
 5.82035E-01
 5.82035E-01
 5.82035E-01
 5.82035E-01
 5.82035E-01
 5.82035E-01
 5.82035E-01
 5.82035E-01
 5.82035E-01
 5.82035E-01
 5.82035E-01
 5.82035E-01
 5.82035E-01
 5.82035E-01
 5.82035E-01
 5.82035E-01
 5.82035E-01
 5.82035E-01
 5.82035E-01
 5.82035E-01
 5.82035E-01
 5.82035E-01
 5.82035E-01
 5.82035E-01
 5.82035E-01
 7.76047E-01
 7.76047E-01
 7.76047E-01
 7.76047E-01
 7.76047E-01
 7.76047E-01
 7.76047E-01
 7.76047E-01
 7.76047E-01
 7.76047E-01
 7.76047E-01
 7.76047E-01
 7.76047E-01
 7.76047E-01
 7.76047E-01
 7.76047E-01
 7.76047E-01
 7.76047E-01
 7.76047E-01
 7.76047E-01
 7.76047E-01
 7.76047E-01
 7.76047E-01
 7.76047E-01
 7.76047E-01
 7.76047E-01
 7.76047E-01
 7.76047E-01
 7.76047E-01
 7.76047E-01
 7.76047E-01
 7.76047E-01
 7.76047E-01
 7.76047E-01
 7.76047E-01
 7.76047E-01
 9.70059E-01
 9.70059E-01
 9.70059E-01
 9.70059E-01
 9.70059E-01
 9.70059E-01
 9.70059E-01
 9.70059E-01
 9.70059E-01
 9.70059E-01
 9.70059E-01
 9.70059E-01
 9.70059E-01
 9.70059E-01
 9.70059E-01
 9.70059E-01
 9.70059E-01
 9.70059E-01
 9.70059E-01
 9.70059E-01
 9.70059E-01
 9.70059E-01
 9.70059E-01
 9.70059E-01
 9.70059E-01
 9.70059E-01
 9.70059E-01
 9.70059E-01
 9.70059E-01
 9.70059E-01
 9.70059E-01
 9.70059E-01
 9.70059E-01
 9.70059E-01
 9.70059E-01
 9.70059E-01
 SCALARS measuredDisp14 float  1                   
LOOKUP_TABLE default
 3.00998E-01
 3.00998E-01
 3.00998E-01
 3.00998E-01
 3.00998E-01
 3.00998E-01
 3.00998E-01
 3.00998E-01
 3.00998E-01
 3.00998E-01
 3.00998E-01
 3.00998E-01
 3.00998E-01
 3.00998E-01
 3.00998E-01
 3.00998E-01
 3.00998E-01
 3.00998E-01
 3.00998E-01
 3.00998E-01
 3.00998E-01
 3.00998E-01
 3.00998E-01
 3.00998E-01
 3.00998E-01
 3.00998E-01
 3.00998E-01
 3.00998E-01
 3.00998E-01
 3.00998E-01
 3.00998E-01
 3.00998E-01
 3.00998E-01
 3.00998E-01
 3.00998E-01
 3.00998E-01
 3.00998E-01
 3.00998E-01
 3.00998E-01
 3.00998E-01
 3.00998E-01
 3.00998E-01
 3.00998E-01
 3.00998E-01
 3.00998E-01
 3.00998E-01
 3.00998E-01
 3.00998E-01
 3.00998E-01
 3.00998E-01
 3.00998E-01
 3.00998E-01
 3.00998E-01
 3.00998E-01
 3.00998E-01
 3.00998E-01
 3.00998E-01
 3.00998E-01
 3.00998E-01
 3.00998E-01
 3.00998E-01
 3.00998E-01
 3.00998E-01
 3.00998E-01
 3.00998E-01
 3.00998E-01
 3.00998E-01
 3.00998E-01
 3.00998E-01
 3.00998E-01
 3.00998E-01
 3.00998E-01
 3.00998E-01
 3.00998E-01
 3.00998E-01
 3.00998E-01
 3.00998E-01
 3.00998E-01
 3.00998E-01
 3.00998E-01
 3.00998E-01
 3.00998E-01
 3.00998E-01
 3.00998E-01
 3.00998E-01
 3.00998E-01
 3.00998E-01
 3.00998E-01
 3.00998E-01
 3.00998E-01
 3.00998E-01
 3.00998E-01
 3.00998E-01
 3.00998E-01
 3.00998E-01
 3.00998E-01
 3.00998E-01
 3.00998E-01
 3.00998E-01
 3.00998E-01
 3.00998E-01
 3.00998E-01
 3.00998E-01
 3.00998E-01
 3.00998E-01
 3.00998E-01
 3.00998E-01
 3.00998E-01
 3.00998E-01
 3.00998E-01
 3.00998E-01
 3.00998E-01
 3.00998E-01
 3.00998E-01
 3.00998E-01
 3.00998E-01
 3.00998E-01
 3.00998E-01
 3.00998E-01
 3.00998E-01
 3.00998E-01
 3.00998E-01
 3.00998E-01
 3.00998E-01
 3.00998E-01
 3.00998E-01
 3.00998E-01
 3.00998E-01
 3.00998E-01
 3.00998E-01
 3.00998E-01
 3.00998E-01
 3.00998E-01
 3.00998E-01
 3.00998E-01
 3.00998E-01
 3.00998E-01
 3.00998E-01
 3.00998E-01
 3.00998E-01
 3.00998E-01
 3.00998E-01
 3.00998E-01
 3.00998E-01
 3.00998E-01
 3.00998E-01
 3.00998E-01
 3.00998E-01
 3.00998E-01
 3.00998E-01
 3.00998E-01
 3.00998E-01
 3.00998E-01
 3.00998E-01
 3.00998E-01
 3.00998E-01
 3.00998E-01
 3.00998E-01
 3.00998E-01
 3.00998E-01
 3.00998E-01
 3.00998E-01
 3.00998E-01
 3.00998E-01
 3.00998E-01
 3.00998E-01
 3.00998E-01
 3.00998E-01
 3.00998E-01
 3.00998E-01
 3.00998E-01
 3.00998E-01
 3.00998E-01
 3.00998E-01
 3.00998E-01
 3.00998E-01
 3.00998E-01
 3.00998E-01
 3.00998E-01
 3.00998E-01
 3.00998E-01
 3.00998E-01
 3.00998E-01
 3.00998E-01
 3.00998E-01
 3.00998E-01
 3.00998E-01
 3.00998E-01
 3.00998E-01
 3.00998E-01
 3.00998E-01
 3.00998E-01
 3.00998E-01
 3.00998E-01
 3.00998E-01
 3.00998E-01
 3.00998E-01
 3.00998E-01
 3.00998E-01
 3.00998E-01
 3.00998E-01
 3.00998E-01
 3.00998E-01
 3.00998E-01
 3.00998E-01
 3.00998E-01
 3.00998E-01
 3.00998E-01
 3.00998E-01
 3.00998E-01
 3.00998E-01
 3.00998E-01
 3.00998E-01
 3.00998E-01
 3.00998E-01
 3.00998E-01
 SCALARS predictedDisp11 float  1                  
LOOKUP_TABLE default
 0.00000E+00
 9.98822E-02
 2.03704E-01
 3.09529E-01
 4.13505E-01
 5.13616E-01
-6.74570E-04
 1.00291E-01
 2.04344E-01
 3.09784E-01
 4.13842E-01
 5.14609E-01
-1.86876E-03
 1.00018E-01
 2.04350E-01
 3.10069E-01
 4.14627E-01
 5.16649E-01
-1.89279E-03
 9.99330E-02
 2.04486E-01
 3.10255E-01
 4.14970E-01
 5.17264E-01
-5.77310E-04
 1.00329E-01
 2.04452E-01
 3.10284E-01
 4.14817E-01
 5.16530E-01
 0.00000E+00
 1.00102E-01
 2.04354E-01
 3.10618E-01
 4.15254E-01
 5.15906E-01
-2.31100E-03
 9.83737E-02
 2.03406E-01
 3.10305E-01
 4.15204E-01
 5.16154E-01
-2.64913E-03
 9.89618E-02
 2.03849E-01
 3.10443E-01
 4.15684E-01
 5.17390E-01
-3.81331E-03
 9.85146E-02
 2.04095E-01
 3.10851E-01
 4.16259E-01
 5.19223E-01
-4.22658E-03
 9.86664E-02
 2.03951E-01
 3.10889E-01
 4.16714E-01
 5.19541E-01
-3.00907E-03
 9.87308E-02
 2.04171E-01
 3.11029E-01
 4.16499E-01
 5.18706E-01
-2.38901E-03
 9.87695E-02
 2.03832E-01
 3.11295E-01
 4.17003E-01
 5.18437E-01
-9.42438E-03
 9.53567E-02
 2.02581E-01
 3.11764E-01
 4.19793E-01
 5.23999E-01
-8.84193E-03
 9.50531E-02
 2.03278E-01
 3.12346E-01
 4.19536E-01
 5.24839E-01
-1.03027E-02
 9.57620E-02
 2.03171E-01
 3.12289E-01
 4.20638E-01
 5.25390E-01
-9.46684E-03
 9.51313E-02
 2.03505E-01
 3.12681E-01
 4.20420E-01
 5.26826E-01
-9.59886E-03
 9.58628E-02
 2.03144E-01
 3.12585E-01
 4.21245E-01
 5.25802E-01
-9.13250E-03
 9.50774E-02
 2.03392E-01
 3.12997E-01
 4.20967E-01
 5.26430E-01
-1.75454E-02
 9.32895E-02
 2.03694E-01
 3.12901E-01
 4.21019E-01
 5.32745E-01
-1.68777E-02
 9.49392E-02
 2.03361E-01
 3.12808E-01
 4.22851E-01
 5.30708E-01
-1.38103E-02
 9.43211E-02
 2.04212E-01
 3.13451E-01
 4.21596E-01
 5.32564E-01
-1.52686E-02
 9.57139E-02
 2.03802E-01
 3.13190E-01
 4.23280E-01
 5.31817E-01
-1.39607E-02
 9.39793E-02
 2.04246E-01
 3.13950E-01
 4.22870E-01
 5.35181E-01
-1.65163E-02
 9.54504E-02
 2.03731E-01
 3.13443E-01
 4.24456E-01
 5.35916E-01
-7.21027E-03
 1.07091E-01
 2.08104E-01
 3.08676E-01
 4.12787E-01
 5.26183E-01
-1.25580E-03
 1.04721E-01
 2.08126E-01
 3.09908E-01
 4.11533E-01
 5.25532E-01
-3.61862E-03
 1.07765E-01
 2.08996E-01
 3.10240E-01
 4.13049E-01
 5.19447E-01
 1.27875E-05
 1.06266E-01
 2.08992E-01
 3.10334E-01
 4.11924E-01
 5.23684E-01
-6.77410E-03
 1.07483E-01
 2.09114E-01
 3.11169E-01
 4.15030E-01
 5.21624E-01
-7.47691E-03
 1.05805E-01
 2.10001E-01
 3.10979E-01
 4.12682E-01
 5.27718E-01
 4.89658E-02
 1.44576E-01
 2.19153E-01
 2.98780E-01
 3.73267E-01
 4.68435E-01
 4.88560E-02
 1.46038E-01
 2.16458E-01
 2.99044E-01
 3.77054E-01
 4.57837E-01
 6.27520E-02
 1.42697E-01
 2.15611E-01
 3.03058E-01
 3.78222E-01
 4.68871E-01
 5.36728E-02
 1.43900E-01
 2.18168E-01
 3.05711E-01
 3.79531E-01
 4.60288E-01
 6.42652E-02
 1.44801E-01
 2.22181E-01
 3.04908E-01
 3.76180E-01
 4.73981E-01
 5.34793E-02
 1.48370E-01
 2.22022E-01
 3.02005E-01
 3.77490E-01
 4.73721E-01
 SCALARS predictedDisp12 float  1                  
LOOKUP_TABLE default
 0.00000E+00
-1.07662E-03
-2.69288E-03
-3.16494E-03
-2.38227E-03
-2.36564E-03
 9.99203E-02
 9.98820E-02
 9.91660E-02
 9.85803E-02
 9.84615E-02
 9.76556E-02
 2.03836E-01
 2.04030E-01
 2.03531E-01
 2.03164E-01
 2.02574E-01
 2.01909E-01
 3.09862E-01
 3.09609E-01
 3.09372E-01
 3.09005E-01
 3.08480E-01
 3.08225E-01
 4.14015E-01
 4.13812E-01
 4.14029E-01
 4.13798E-01
 4.13065E-01
 4.12931E-01
 5.14228E-01
 5.14660E-01
 5.16105E-01
 5.16097E-01
 5.14785E-01
 5.13587E-01
-2.24821E-03
-3.03852E-03
-4.60809E-03
-5.47904E-03
-4.77227E-03
-4.72713E-03
 9.84334E-02
 9.85970E-02
 9.76734E-02
 9.73558E-02
 9.68806E-02
 9.63706E-02
 2.03592E-01
 2.03560E-01
 2.03326E-01
 2.02652E-01
 2.02346E-01
 2.01417E-01
 3.10685E-01
 3.10326E-01
 3.10201E-01
 3.09696E-01
 3.09271E-01
 3.08960E-01
 4.15776E-01
 4.15716E-01
 4.15725E-01
 4.15601E-01
 4.14810E-01
 4.14734E-01
 5.16841E-01
 5.17513E-01
 5.18736E-01
 5.18446E-01
 5.17021E-01
 5.16188E-01
-9.28427E-03
-9.11936E-03
-1.10243E-02
-1.06290E-02
-1.12901E-02
-1.13279E-02
 9.55549E-02
 9.47698E-02
 9.50356E-02
 9.38934E-02
 9.41387E-02
 9.27888E-02
 2.02879E-01
 2.03124E-01
 2.02499E-01
 2.02338E-01
 2.01430E-01
 2.01122E-01
 3.12290E-01
 3.12377E-01
 3.11789E-01
 3.11632E-01
 3.10977E-01
 3.10805E-01
 4.20521E-01
 4.19729E-01
 4.20280E-01
 4.19467E-01
 4.19716E-01
 4.18845E-01
 5.24813E-01
 5.25143E-01
 5.25084E-01
 5.25899E-01
 5.24279E-01
 5.24330E-01
-1.70239E-02
-1.69458E-02
-1.43091E-02
-1.62596E-02
-1.53893E-02
-1.84605E-02
 9.37530E-02
 9.49370E-02
 9.37788E-02
 9.47314E-02
 9.24709E-02
 9.34743E-02
 2.04254E-01
 2.03404E-01
 2.03775E-01
 2.02827E-01
 2.02782E-01
 2.01699E-01
 3.13623E-01
 3.13031E-01
 3.13162E-01
 3.12344E-01
 3.12559E-01
 3.11453E-01
 4.21873E-01
 4.23255E-01
 4.21416E-01
 4.22540E-01
 4.21514E-01
 4.22511E-01
 5.33766E-01
 5.31199E-01
 5.32496E-01
 5.31092E-01
 5.33859E-01
 5.33945E-01
-6.08910E-03
-6.85819E-04
-3.67878E-03
-4.74805E-04
-7.68796E-03
-8.61821E-03
 1.08232E-01
 1.05223E-01
 1.07800E-01
 1.05744E-01
 1.06576E-01
 1.04418E-01
 2.09043E-01
 2.08598E-01
 2.08899E-01
 2.08438E-01
 2.08014E-01
 2.08402E-01
 3.09488E-01
 3.10303E-01
 3.10098E-01
 3.09694E-01
 3.09947E-01
 3.09215E-01
 4.13581E-01
 4.11847E-01
 4.12944E-01
 4.11214E-01
 4.13766E-01
 4.10753E-01
 5.26954E-01
 5.26049E-01
 5.19424E-01
 5.23072E-01
 5.20319E-01
 5.25779E-01
 5.15403E-02
 5.06410E-02
 6.37774E-02
 5.43367E-02
 6.46606E-02
 5.35699E-02
 1.46952E-01
 1.47874E-01
 1.43877E-01
 1.44660E-01
 1.45008E-01
 1.48204E-01
 2.20923E-01
 2.17661E-01
 2.16353E-01
 2.18326E-01
 2.21757E-01
 2.21003E-01
 2.99419E-01
 2.99210E-01
 3.02859E-01
 3.05066E-01
 3.03653E-01
 3.00075E-01
 3.73150E-01
 3.76688E-01
 3.77475E-01
 3.78479E-01
 3.74574E-01
 3.75277E-01
 4.68420E-01
 4.57532E-01
 4.68325E-01
 4.59370E-01
 4.72421E-01
 4.71463E-01
 SCALARS predictedDisp13 float  1                  
LOOKUP_TABLE default
 0.00000E+00
 0.00000E+00
 0.00000E+00
 0.00000E+00
 0.00000E+00
 0.00000E+00
 0.00000E+00
 0.00000E+00
 0.00000E+00
 0.00000E+00
 0.00000E+00
 0.00000E+00
 0.00000E+00
 0.00000E+00
 0.00000E+00
 0.00000E+00
 0.00000E+00
 0.00000E+00
 0.00000E+00
 0.00000E+00
 0.00000E+00
 0.00000E+00
 0.00000E+00
 0.00000E+00
 0.00000E+00
 0.00000E+00
 0.00000E+00
 0.00000E+00
 0.00000E+00
 0.00000E+00
 0.00000E+00
 0.00000E+00
 0.00000E+00
 0.00000E+00
 0.00000E+00
 0.00000E+00
 1.94940E-01
 1.93536E-01
 1.95317E-01
 1.95058E-01
 1.94034E-01
 1.95276E-01
 1.93663E-01
 1.93190E-01
 1.94457E-01
 1.94863E-01
 1.93028E-01
 1.94784E-01
 1.95583E-01
 1.94600E-01
 1.96662E-01
 1.96531E-01
 1.95500E-01
 1.96428E-01
 1.95387E-01
 1.95072E-01
 1.96600E-01
 1.97175E-01
 1.95601E-01
 1.97182E-01
 1.94362E-01
 1.93234E-01
 1.95576E-01
 1.95612E-01
 1.94829E-01
 1.95883E-01
 1.95654E-01
 1.95042E-01
 1.96561E-01
 1.97255E-01
 1.95943E-01
 1.97928E-01
 3.82607E-01
 3.83932E-01
 3.88030E-01
 3.87849E-01
 3.83499E-01
 3.83573E-01
 3.84243E-01
 3.85206E-01
 3.90654E-01
 3.90157E-01
 3.86433E-01
 3.85048E-01
 3.88653E-01
 3.90980E-01
 3.95454E-01
 3.95761E-01
 3.91448E-01
 3.90657E-01
 3.88593E-01
 3.90613E-01
 3.95901E-01
 3.96435E-01
 3.92919E-01
 3.91782E-01
 3.84190E-01
 3.86834E-01
 3.91553E-01
 3.92908E-01
 3.88397E-01
 3.88605E-01
 3.84295E-01
 3.85481E-01
 3.90820E-01
 3.91836E-01
 3.88671E-01
 3.88488E-01
 5.50676E-01
 5.63922E-01
 5.73193E-01
 5.73864E-01
 5.63725E-01
 5.53371E-01
 5.64539E-01
 5.77866E-01
 5.88316E-01
 5.87316E-01
 5.77963E-01
 5.66258E-01
 5.74364E-01
 5.88917E-01
 5.97462E-01
 5.98701E-01
 5.89298E-01
 5.78301E-01
 5.75228E-01
 5.88100E-01
 5.98913E-01
 5.98798E-01
 5.91639E-01
 5.78905E-01
 5.64878E-01
 5.78528E-01
 5.89350E-01
 5.91524E-01
 5.82479E-01
 5.70846E-01
 5.54353E-01
 5.66666E-01
 5.78255E-01
 5.78765E-01
 5.70816E-01
 5.59273E-01
 6.92378E-01
 7.30685E-01
 7.49333E-01
 7.46019E-01
 7.30261E-01
 6.90870E-01
 7.31760E-01
 7.72044E-01
 7.90220E-01
 7.87489E-01
 7.73596E-01
 7.34173E-01
 7.51385E-01
 7.91241E-01
 8.03889E-01
 8.01545E-01
 7.90229E-01
 7.52478E-01
 7.48313E-01
 7.88761E-01
 8.01839E-01
 8.05322E-01
 7.94467E-01
 7.57025E-01
 7.32007E-01
 7.74274E-01
 7.90056E-01
 7.94146E-01
 7.77809E-01
 7.39697E-01
 6.91951E-01
 7.34228E-01
 7.51857E-01
 7.56411E-01
 7.39482E-01
 7.03138E-01
 8.06972E-01
 9.04508E-01
 9.06995E-01
 9.22085E-01
 8.85858E-01
 8.22639E-01
 9.06061E-01
 9.70608E-01
 1.01439E+00
 9.81123E-01
 9.94735E-01
 8.91609E-01
 9.09999E-01
 1.01616E+00
 9.90808E-01
 1.01099E+00
 9.84669E-01
 9.30932E-01
 9.25754E-01
 9.83166E-01
 1.01141E+00