# vtk DataFile Version 2.0
Output of NLACE
ASCII
DATASET UNSTRUCTURED_GRID
POINTS          216 FLOAT
 0.000000E+00  0.000000E+00  0.000000E+00
 2.000000E+00  0.000000E+00  0.000000E+00
 4.000000E+00  0.000000E+00  0.000000E+00
 6.000000E+00  0.000000E+00  0.000000E+00
 8.000000E+00  0.000000E+00  0.000000E+00
 1.000000E+01  0.000000E+00  0.000000E+00
 0.000000E+00  2.000000E+00  0.000000E+00
 2.000000E+00  2.000000E+00  0.000000E+00
 4.000000E+00  2.000000E+00  0.000000E+00
 6.000000E+00  2.000000E+00  0.000000E+00
 8.000000E+00  2.000000E+00  0.000000E+00
 1.000000E+01  2.000000E+00  0.000000E+00
 0.000000E+00  4.000000E+00  0.000000E+00
 2.000000E+00  4.000000E+00  0.000000E+00
 4.000000E+00  4.000000E+00  0.000000E+00
 6.000000E+00  4.000000E+00  0.000000E+00
 8.000000E+00  4.000000E+00  0.000000E+00
 1.000000E+01  4.000000E+00  0.000000E+00
 0.000000E+00  6.000000E+00  0.000000E+00
 2.000000E+00  6.000000E+00  0.000000E+00
 4.000000E+00  6.000000E+00  0.000000E+00
 6.000000E+00  6.000000E+00  0.000000E+00
 8.000000E+00  6.000000E+00  0.000000E+00
 1.000000E+01  6.000000E+00  0.000000E+00
 0.000000E+00  8.000000E+00  0.000000E+00
 2.000000E+00  8.000000E+00  0.000000E+00
 4.000000E+00  8.000000E+00  0.000000E+00
 6.000000E+00  8.000000E+00  0.000000E+00
 8.000000E+00  8.000000E+00  0.000000E+00
 1.000000E+01  8.000000E+00  0.000000E+00
 0.000000E+00  1.000000E+01  0.000000E+00
 2.000000E+00  1.000000E+01  0.000000E+00
 4.000000E+00  1.000000E+01  0.000000E+00
 6.000000E+00  1.000000E+01  0.000000E+00
 8.000000E+00  1.000000E+01  0.000000E+00
 1.000000E+01  1.000000E+01  0.000000E+00
 0.000000E+00  0.000000E+00 -2.000000E+00
 2.000000E+00  0.000000E+00 -2.000000E+00
 4.000000E+00  0.000000E+00 -2.000000E+00
 6.000000E+00  0.000000E+00 -2.000000E+00
 8.000000E+00  0.000000E+00 -2.000000E+00
 1.000000E+01  0.000000E+00 -2.000000E+00
 0.000000E+00  2.000000E+00 -2.000000E+00
 2.000000E+00  2.000000E+00 -2.000000E+00
 4.000000E+00  2.000000E+00 -2.000000E+00
 6.000000E+00  2.000000E+00 -2.000000E+00
 8.000000E+00  2.000000E+00 -2.000000E+00
 1.000000E+01  2.000000E+00 -2.000000E+00
 0.000000E+00  4.000000E+00 -2.000000E+00
 2.000000E+00  4.000000E+00 -2.000000E+00
 4.000000E+00  4.000000E+00 -2.000000E+00
 6.000000E+00  4.000000E+00 -2.000000E+00
 8.000000E+00  4.000000E+00 -2.000000E+00
 1.000000E+01  4.000000E+00 -2.000000E+00
 0.000000E+00  6.000000E+00 -2.000000E+00
 2.000000E+00  6.000000E+00 -2.000000E+00
 4.000000E+00  6.000000E+00 -2.000000E+00
 6.000000E+00  6.000000E+00 -2.000000E+00
 8.000000E+00  6.000000E+00 -2.000000E+00
 1.000000E+01  6.000000E+00 -2.000000E+00
 0.000000E+00  8.000000E+00 -2.000000E+00
 2.000000E+00  8.000000E+00 -2.000000E+00
 4.000000E+00  8.000000E+00 -2.000000E+00
 6.000000E+00  8.000000E+00 -2.000000E+00
 8.000000E+00  8.000000E+00 -2.000000E+00
 1.000000E+01  8.000000E+00 -2.000000E+00
 0.000000E+00  1.000000E+01 -2.000000E+00
 2.000000E+00  1.000000E+01 -2.000000E+00
 4.000000E+00  1.000000E+01 -2.000000E+00
 6.000000E+00  1.000000E+01 -2.000000E+00
 8.000000E+00  1.000000E+01 -2.000000E+00
 1.000000E+01  1.000000E+01 -2.000000E+00
 0.000000E+00  0.000000E+00 -4.000000E+00
 2.000000E+00  0.000000E+00 -4.000000E+00
 4.000000E+00  0.000000E+00 -4.000000E+00
 6.000000E+00  0.000000E+00 -4.000000E+00
 8.000000E+00  0.000000E+00 -4.000000E+00
 1.000000E+01  0.000000E+00 -4.000000E+00
 0.000000E+00  2.000000E+00 -4.000000E+00
 2.000000E+00  2.000000E+00 -4.000000E+00
 4.000000E+00  2.000000E+00 -4.000000E+00
 6.000000E+00  2.000000E+00 -4.000000E+00
 8.000000E+00  2.000000E+00 -4.000000E+00
 1.000000E+01  2.000000E+00 -4.000000E+00
 0.000000E+00  4.000000E+00 -4.000000E+00
 2.000000E+00  4.000000E+00 -4.000000E+00
 4.000000E+00  4.000000E+00 -4.000000E+00
 6.000000E+00  4.000000E+00 -4.000000E+00
 8.000000E+00  4.000000E+00 -4.000000E+00
 1.000000E+01  4.000000E+00 -4.000000E+00
 0.000000E+00  6.000000E+00 -4.000000E+00
 2.000000E+00  6.000000E+00 -4.000000E+00
 4.000000E+00  6.000000E+00 -4.000000E+00
 6.000000E+00  6.000000E+00 -4.000000E+00
 8.000000E+00  6.000000E+00 -4.000000E+00
 1.000000E+01  6.000000E+00 -4.000000E+00
 0.000000E+00  8.000000E+00 -4.000000E+00
 2.000000E+00  8.000000E+00 -4.000000E+00
 4.000000E+00  8.000000E+00 -4.000000E+00
 6.000000E+00  8.000000E+00 -4.000000E+00
 8.000000E+00  8.000000E+00 -4.000000E+00
 1.000000E+01  8.000000E+00 -4.000000E+00
 0.000000E+00  1.000000E+01 -4.000000E+00
 2.000000E+00  1.000000E+01 -4.000000E+00
 4.000000E+00  1.000000E+01 -4.000000E+00
 6.000000E+00  1.000000E+01 -4.000000E+00
 8.000000E+00  1.000000E+01 -4.000000E+00
 1.000000E+01  1.000000E+01 -4.000000E+00
 0.000000E+00  0.000000E+00 -6.000000E+00
 2.000000E+00  0.000000E+00 -6.000000E+00
 4.000000E+00  0.000000E+00 -6.000000E+00
 6.000000E+00  0.000000E+00 -6.000000E+00
 8.000000E+00  0.000000E+00 -6.000000E+00
 1.000000E+01  0.000000E+00 -6.000000E+00
 0.000000E+00  2.000000E+00 -6.000000E+00
 2.000000E+00  2.000000E+00 -6.000000E+00
 4.000000E+00  2.000000E+00 -6.000000E+00
 6.000000E+00  2.000000E+00 -6.000000E+00
 8.000000E+00  2.000000E+00 -6.000000E+00
 1.000000E+01  2.000000E+00 -6.000000E+00
 0.000000E+00  4.000000E+00 -6.000000E+00
 2.000000E+00  4.000000E+00 -6.000000E+00
 4.000000E+00  4.000000E+00 -6.000000E+00
 6.000000E+00  4.000000E+00 -6.000000E+00
 8.000000E+00  4.000000E+00 -6.000000E+00
 1.000000E+01  4.000000E+00 -6.000000E+00
 0.000000E+00  6.000000E+00 -6.000000E+00
 2.000000E+00  6.000000E+00 -6.000000E+00
 4.000000E+00  6.000000E+00 -6.000000E+00
 6.000000E+00  6.000000E+00 -6.000000E+00
 8.000000E+00  6.000000E+00 -6.000000E+00
 1.000000E+01  6.000000E+00 -6.000000E+00
 0.000000E+00  8.000000E+00 -6.000000E+00
 2.000000E+00  8.000000E+00 -6.000000E+00
 4.000000E+00  8.000000E+00 -6.000000E+00
 6.000000E+00  8.000000E+00 -6.000000E+00
 8.000000E+00  8.000000E+00 -6.000000E+00
 1.000000E+01  8.000000E+00 -6.000000E+00
 0.000000E+00  1.000000E+01 -6.000000E+00
 2.000000E+00  1.000000E+01 -6.000000E+00
 4.000000E+00  1.000000E+01 -6.000000E+00
 6.000000E+00  1.000000E+01 -6.000000E+00
 8.000000E+00  1.000000E+01 -6.000000E+00
 1.000000E+01  1.000000E+01 -6.000000E+00
 0.000000E+00  0.000000E+00 -8.000000E+00
 2.000000E+00  0.000000E+00 -8.000000E+00
 4.000000E+00  0.000000E+00 -8.000000E+00
 6.000000E+00  0.000000E+00 -8.000000E+00
 8.000000E+00  0.000000E+00 -8.000000E+00
 1.000000E+01  0.000000E+00 -8.000000E+00
 0.000000E+00  2.000000E+00 -8.000000E+00
 2.000000E+00  2.000000E+00 -8.000000E+00
 4.000000E+00  2.000000E+00 -8.000000E+00
 6.000000E+00  2.000000E+00 -8.000000E+00
 8.000000E+00  2.000000E+00 -8.000000E+00
 1.000000E+01  2.000000E+00 -8.000000E+00
 0.000000E+00  4.000000E+00 -8.000000E+00
 2.000000E+00  4.000000E+00 -8.000000E+00
 4.000000E+00  4.000000E+00 -8.000000E+00
 6.000000E+00  4.000000E+00 -8.000000E+00
 8.000000E+00  4.000000E+00 -8.000000E+00
 1.000000E+01  4.000000E+00 -8.000000E+00
 0.000000E+00  6.000000E+00 -8.000000E+00
 2.000000E+00  6.000000E+00 -8.000000E+00
 4.000000E+00  6.000000E+00 -8.000000E+00
 6.000000E+00  6.000000E+00 -8.000000E+00
 8.000000E+00  6.000000E+00 -8.000000E+00
 1.000000E+01  6.000000E+00 -8.000000E+00
 0.000000E+00  8.000000E+00 -8.000000E+00
 2.000000E+00  8.000000E+00 -8.000000E+00
 4.000000E+00  8.000000E+00 -8.000000E+00
 6.000000E+00  8.000000E+00 -8.000000E+00
 8.000000E+00  8.000000E+00 -8.000000E+00
 1.000000E+01  8.000000E+00 -8.000000E+00
 0.000000E+00  1.000000E+01 -8.000000E+00
 2.000000E+00  1.000000E+01 -8.000000E+00
 4.000000E+00  1.000000E+01 -8.000000E+00
 6.000000E+00  1.000000E+01 -8.000000E+00
 8.000000E+00  1.000000E+01 -8.000000E+00
 1.000000E+01  1.000000E+01 -8.000000E+00
 0.000000E+00  0.000000E+00 -1.000000E+01
 2.000000E+00  0.000000E+00 -1.000000E+01
 4.000000E+00  0.000000E+00 -1.000000E+01
 6.000000E+00  0.000000E+00 -1.000000E+01
 8.000000E+00  0.000000E+00 -1.000000E+01
 1.000000E+01  0.000000E+00 -1.000000E+01
 0.000000E+00  2.000000E+00 -1.000000E+01
 2.000000E+00  2.000000E+00 -1.000000E+01
 4.000000E+00  2.000000E+00 -1.000000E+01
 6.000000E+00  2.000000E+00 -1.000000E+01
 8.000000E+00  2.000000E+00 -1.000000E+01
 1.000000E+01  2.000000E+00 -1.000000E+01
 0.000000E+00  4.000000E+00 -1.000000E+01
 2.000000E+00  4.000000E+00 -1.000000E+01
 4.000000E+00  4.000000E+00 -1.000000E+01
 6.000000E+00  4.000000E+00 -1.000000E+01
 8.000000E+00  4.000000E+00 -1.000000E+01
 1.000000E+01  4.000000E+00 -1.000000E+01
 0.000000E+00  6.000000E+00 -1.000000E+01
 2.000000E+00  6.000000E+00 -1.000000E+01
 4.000000E+00  6.000000E+00 -1.000000E+01
 6.000000E+00  6.000000E+00 -1.000000E+01
 8.000000E+00  6.000000E+00 -1.000000E+01
 1.000000E+01  6.000000E+00 -1.000000E+01
 0.000000E+00  8.000000E+00 -1.000000E+01
 2.000000E+00  8.000000E+00 -1.000000E+01
 4.000000E+00  8.000000E+00 -1.000000E+01
 6.000000E+00  8.000000E+00 -1.000000E+01
 8.000000E+00  8.000000E+00 -1.000000E+01
 1.000000E+01  8.000000E+00 -1.000000E+01
 0.000000E+00  1.000000E+01 -1.000000E+01
 2.000000E+00  1.000000E+01 -1.000000E+01
 4.000000E+00  1.000000E+01 -1.000000E+01
 6.000000E+00  1.000000E+01 -1.000000E+01
 8.000000E+00  1.000000E+01 -1.000000E+01
 1.000000E+01  1.000000E+01 -1.000000E+01
CELLS          625        3125
4    0   36   42   37
4    7   42   43   37
4    7   42   37    0
4    7    0    6   42
4    1    0    7   37
4    7   37   43   44
4    2   37   44   38
4    2   37    7   44
4    1   37    7    2
4    8    7   44    2
4    2   38   44   39
4    9   44   45   39
4    9   44   39    2
4    9    2    8   44
4    3    2    9   39
4    9   39   45   46
4    4   39   46   40
4    4   39    9   46
4    3   39    9    4
4   10    9   46    4
4    4   40   46   41
4   11   46   47   41
4   11   46   41    4
4   11    4   10   46
4    5    4   11   41
4   12   42   48   49
4    7   42   49   43
4    7   42   12   49
4    6   42   12    7
4   13   12   49    7
4    7   43   49   44
4   14   49   50   44
4   14   49   44    7
4   14    7   13   49
4    8    7   14   44
4   14   44   50   51
[...]
POINT_DATA          216
 SCALARS measuredDisp11 float  1                   
LOOKUP_TABLE default
 0.00000E+00
 1.04687E-01
 2.09374E-01
 3.14061E-01
 4.18748E-01
 5.23435E-01
 0.00000E+00
 1.04687E-01
 2.09374E-01
 3.14061E-01
 4.18748E-01
 5.23435E-01
 0.00000E+00
 1.04687E-01
 2.09374E-01
 3.14061E-01
 4.18748E-01
 5.23435E-01
 0.00000E+00
 1.04687E-01
 2.09374E-01
 3.14061E-01
 4.18748E-01
 5.23435E-01
 0.00000E+00
 1.04687E-01
 2.09374E-01
 3.14061E-01
 4.18748E-01
 5.23435E-01
 0.00000E+00
 1.04687E-01
 2.09374E-01
 3.14061E-01
 4.18748E-01
 5.23435E-01
 0.00000E+00
 1.04687E-01
 2.09374E-01
 3.14061E-01
 4.18748E-01
 5.23435E-01
 0.00000E+00
 1.04687E-01
 2.09374E-01
 3.14061E-01
 4.18748E-01
 5.23435E-01
 0.00000E+00
 1.04687E-01
 2.09374E-01
 3.14061E-01
 4.18748E-01
 5.23435E-01
 0.00000E+00
 1.04687E-01
 2.09374E-01
 3.14061E-01
 4.18748E-01
 5.23435E-01
 0.00000E+00
 1.04687E-01
 2.09374E-01
 3.14061E-01
 4.18748E-01
 5.23435E-01
 0.00000E+00
 1.04687E-01
 2.09374E-01
 3.14061E-01
 4.18748E-01
 5.23435E-01
 0.00000E+00
 1.04687E-01
 2.09374E-01
 3.14061E-01
 4.18748E-01
 5.23435E-01
 0.00000E+00
 1.04687E-01
 2.09374E-01
 3.14061E-01
 4.18748E-01
 5.23435E-01
 0.00000E+00
 1.04687E-01
 2.09374E-01
 3.14061E-01
 4.18748E-01
 5.23435E-01
 0.00000E+00
 1.04687E-01
 2.09374E-01
 3.14061E-01
 4.18748E-01
 5.23435E-01
 0.00000E+00
 1.04687E-01
 2.09374E-01
 3.14061E-01
 4.18748E-01
 5.23435E-01
 0.00000E+00
 1.04687E-01
 2.09374E-01
 3.14061E-01
 4.18748E-01
 5.23435E-01
 0.00000E+00
 1.04687E-01
 2.09374E-01
 3.14061E-01
 4.18748E-01
 5.23435E-01
 0.00000E+00
 1.04687E-01
 2.09374E-01
 3.14061E-01
 4.18748E-01
 5.23435E-01
 0.00000E+00
 1.04687E-01
 2.09374E-01
 3.14061E-01
 4.18748E-01
 5.23435E-01
 0.00000E+00
 1.04687E-01
 2.09374E-01
 3.14061E-01
 4.18748E-01
 5.23435E-01
 0.00000E+00
 1.04687E-01
 2.09374E-01
 3.14061E-01
 4.18748E-01
 5.23435E-01
 0.00000E+00
 1.04687E-01
 2.09374E-01
 3.14061E-01
 4.18748E-01
 5.23435E-01
 0.00000E+00
 1.04687E-01
 2.09374E-01
 3.14061E-01
 4.18748E-01
 5.23435E-01
 0.00000E+00
 1.04687E-01
 2.09374E-01
 3.14061E-01
 4.18748E-01
 5.23435E-01
 0.00000E+00
 1.04687E-01
 2.09374E-01
 3.14061E-01
 4.18748E-01
 5.23435E-01
 0.00000E+00
 1.04687E-01
 2.09374E-01
 3.14061E-01
 4.18748E-01
 5.23435E-01
 0.00000E+00
 1.04687E-01
 2.09374E-01
 3.14061E-01
 4.18748E-01
 5.23435E-01
 0.00000E+00
 1.04687E-01
 2.09374E-01
 3.14061E-01
 4.18748E-01
 5.23435E-01
 0.00000E+00
 1.04687E-01
 2.09374E-01
 3.14061E-01
 4.18748E-01
 5.23435E-01
 0.00000E+00
 1.04687E-01
 2.09374E-01
 3.14061E-01
 4.18748E-01
 5.23435E-01
 0.00000E+00
 1.04687E-01
 2.09374E-01
 3.14061E-01
 4.18748E-01
 5.23435E-01
 0.00000E+00
 1.04687E-01
 2.09374E-01
 3.14061E-01
 4.18748E-01
 5.23435E-01
 0.00000E+00
 1.04687E-01
 2.09374E-01
 3.14061E-01
 4.18748E-01
 5.23435E-01
 0.00000E+00
 1.04687E-01
 2.09374E-01
 3.14061E-01
 4.18748E-01
 5.23435E-01
 SCALARS measuredDisp12 float  1                   
LOOKUP_TABLE default
 0.00000E+00
 0.00000E+00
 0.00000E+00
 0.00000E+00
 0.00000E+00
 0.00000E+00
 1.04687E-01
 1.04687E-01
 1.04687E-01
 1.04687E-01
 1.04687E-01
 1.04687E-01
 2.09374E-01
 2.09374E-01
 2.09374E-01
 2.09374E-01
 2.09374E-01
 2.09374E-01
 3.14061E-01
 3.14061E-01
 3.14061E-01
 3.14061E-01
 3.14061E-01
 3.14061E-01
 4.18748E-01
 4.18748E-01
 4.18748E-01
 4.18748E-01
 4.18748E-01
 4.18748E-01
 5.23435E-01
 5.23435E-01
 5.23435E-01
 5.23435E-01
 5.23435E-01
 5.23435E-01
 0.00000E+00
 0.00000E+00
 0.00000E+00
 0.00000E+00
 0.00000E+00
 0.00000E+00
 1.04687E-01
 1.04687E-01
 1.04687E-01
 1.04687E-01
 1.04687E-01
 1.04687E-01
 2.09374E-01
 2.09374E-01
 2.09374E-01
 2.09374E-01
 2.09374E-01
 2.09374E-01
 3.14061E-01
 3.14061E-01
 3.14061E-01
 3.14061E-01
 3.14061E-01
 3.14061E-01
 4.18748E-01
 4.18748E-01
 4.18748E-01
 4.18748E-01
 4.18748E-01
 4.18748E-01
 5.23435E-01
 5.23435E-01
 5.23435E-01
 5.23435E-01
 5.23435E-01
 5.23435E-01
 0.00000E+00
 0.00000E+00
 0.00000E+00
 0.00000E+00
 0.00000E+00
 0.00000E+00
 1.04687E-01
 1.04687E-01
 1.04687E-01
 1.04687E-01
 1.04687E-01
 1.04687E-01
 2.09374E-01
 2.09374E-01
 2.09374E-01
 2.09374E-01
 2.09374E-01
 2.09374E-01
 3.14061E-01
 3.14061E-01
 3.14061E-01
 3.14061E-01
 3.14061E-01
 3.14061E-01
 4.18748E-01
 4.18748E-01
 4.18748E-01
 4.18748E-01
 4.18748E-01
 4.18748E-01
 5.23435E-01
 5.23435E-01
 5.23435E-01
 5.23435E-01
 5.23435E-01
 5.23435E-01
 0.00000E+00
 0.00000E+00
 0.00000E+00
 0.00000E+00
 0.00000E+00
 0.00000E+00
 1.04687E-01
 1.04687E-01
 1.04687E-01
 1.04687E-01
 1.04687E-01
 1.04687E-01
 2.09374E-01
 2.09374E-01
 2.09374E-01
 2.09374E-01
 2.09374E-01
 2.09374E-01
 3.14061E-01
 3.14061E-01
 3.14061E-01
 3.14061E-01
 3.14061E-01
 3.14061E-01
 4.18748E-01
 4.18748E-01
 4.18748E-01
 4.18748E-01
 4.18748E-01
 4.18748E-01
 5.23435E-01
 5.23435E-01
 5.23435E-01
 5.23435E-01
 5.23435E-01
 5.23435E-01
 0.00000E+00
 0.00000E+00
 0.00000E+00
 0.00000E+00
 0.00000E+00
 0.00000E+00
 1.04687E-01
 1.04687E-01
 1.04687E-01
 1.04687E-01
 1.04687E-01
 1.04687E-01
 2.09374E-01
 2.09374E-01
 2.09374E-01
 2.09374E-01
 2.09374E-01
 2.09374E-01
 3.14061E-01
 3.14061E-01
 3.14061E-01
 3.14061E-01
 3.14061E-01
 3.14061E-01
 4.18748E-01
 4.18748E-01
 4.18748E-01
 4.18748E-01
 4.18748E-01
 4.18748E-01
 5.23435E-01
 5.23435E-01
 5.23435E-01
 5.23435E-01
 5.23435E-01
 5.23435E-01
 0.00000E+00
 0.00000E+00
 0.00000E+00
 0.00000E+00
 0.00000E+00
 0.00000E+00
 1.04687E-01
 1.04687E-01
 1.04687E-01
 1.04687E-01
 1.04687E-01
 1.04687E-01
 2.09374E-01
 2.09374E-01
 2.09374E-01
 2.09374E-01
 2.09374E-01
 2.09374E-01
 3.14061E-01
 3.14061E-01
 3.14061E-01
 3.14061E-01
 3.14061E-01
 3.14061E-01
 4.18748E-01
 4.18748E-01
 4.18748E-01
 4.18748E-01
 4.18748E-01
 4.18748E-01
 5.23435E-01
 5.23435E-01
 5.23435E-01
 5.23435E-01
 5.23435E-01
 5.23435E-01
 SCALARS measuredDisp13 float  1                   
LOOKUP_TABLE default
 0.00000E+00
 0.00000E+00
 0.00000E+00
 0.00000E+00
 0.00000E+00
 0.00000E+00
 0.00000E+00
 0.00000E+00
 0.00000E+00
 0.00000E+00
 0.00000E+00
 0.00000E+00
 0.00000E+00
 0.00000E+00
 0.00000E+00
 0.00000E+00
 0.00000E+00
 0.00000E+00
 0.00000E+00
 0.00000E+00
 0.00000E+00
 0.00000E+00
 0.00000E+00
 0.00000E+00
 0.00000E+00
 0.00000E+00
 0.00000E+00
 0.00000E+00
 0.00000E+00
 0.00000E+00
 0.00000E+00
 0.00000E+00
 0.00000E+00
 0.00000E+00
 0.00000E+00
 0.00000E+00
 1.94012E-01
 1.94012E-01
 1.94012E-01
 1.94012E-01
 1.94012E-01
 1.94012E-01
 1.94012E-01
 1.94012E-01
 1.94012E-01
 1.94012E-01
 1.94012E-01
 1.94012E-01
 1.94012E-01
 1.94012E-01
 1.94012E-01
 1.94012E-01
 1.94012E-01
 1.94012E-01
 1.94012E-01
 1.94012E-01
 1.94012E-01
 1.94012E-01
 1.94012E-01
 1.94012E-01
 1.94012E-01
 1.94012E-01
 1.94012E-01
 1.94012E-01
 1.94012E-01
 1.94012E-01
 1.94012E-01
 1.94012E-01
 1.94012E-01
 1.94012E-01
 1.94012E-01
 1.94012E-01
 3.88024E-01
 3.88024E-01
 3.88024E-01
 3.88024E-01
 3.88024E-01
 3.88024E-01
 3.88024E-01
 3.88024E-01
 3.88024E-01
 3.88024E-01
 3.88024E-01
 3.88024E-01
 3.88024E-01
 3.88024E-01
 3.88024E-01
 3.88024E-01
 3.88024E-01
 3.88024E-01
 3.88024E-01
 3.88024E-01
 3.88024E-01
 3.88024E-01
 3.88024E-01
 3.88024E-01
 3.88024E-01
 3.88024E-01
 3.88024E-01
 3.88024E-01
 3.88024E-01
 3.88024E-01
 3.88024E-01
 3.88024E-01
 3.88024E-01
 3.88024E-01
 3.88024E-01
 3.88024E-01
 5.82035E-01
 5.82035E-01
 5.82035E-01
 5.82035E-01
 5.82035E-01
 5.82035E-01
 5.82035E-01
 5.82035E-01
 5.82035E-01
 5.82035E-01
 5.82035E-01
 5.82035E-01
 5.82035E-01
 5.82035E-01
 5.82035E-01
 5.82035E-01
 5.82035E-01
 5.82035E-01
 5.82035E-01
 5.82035E-01
 5.82035E-01
 5.82035E-01
 5.82035E-01
 5.82035E-01
 5.82035E-01
 5.82035E-01
 5.82035E-01
 5.82035E-01
 5.82035E-01
 5.82035E-01
 5.82035E-01
 5.82035E-01
 5.82035E-01
 5.82035E-01
 5.82035E-01
 5.82035E-01
 7.76047E-01
 7.76047E-01
 7.76047E-01
 7.76047E-01
 7.76047E-01
 7.76047E-01
 7.76047E-01
 7.76047E-01
 7.76047E-01
 7.76047E-01
 7.76047E-01
 7.76047E-01
 7.76047E-01
 7.76047E-01
 7.76047E-01
 7.76047E-01
 7.76047E-01
 7.76047E-01
 7.76047E-01
 7.76047E-01
 7.76047E-01
 7.76047E-01
 7.76047E-01
 7.76047E-01
 7.76047E-01
 7.76047E-01
 7.76047E-01
 7.76047E-01
 7.76047E-01
 7.76047E-01
 7.76047E-01
 7.76047E-01
 7.76047E-01
 7.76047E-01
 7.76047E-01
 7.76047E-01
 9.70059E-01
 9.70059E-01
 9.70059E-01
 9.70059E-01
 9.70059E-01
 9.70059E-01
 9.70059E-01
 9.70059E-01
 9.70059E-01
 9.70059E-01
 9.70059E-01
 9.70059E-01
 9.70059E-01
 9.70059E-01
 9.70059E-01
 9.70059E-01
 9.70059E-01
 9.70059E-01
 9.70059E-01
 9.70059E-01
 9.70059E-01
 9.70059E-01
 9.70059E-01
 9.70059E-01
 9.70059E-01
 9.70059E-01
 9.70059E-01
 9.70059E-01
 9.70059E-01
 9.70059E-01
 9.70059E-01
 9.70059E-01
 9.70059E-01
 9.70059E-01
 9.70059E-01
 9.70059E-01
 SCALARS measuredDisp14 float  1                   
LOOKUP_TABLE default
 3.00998E-01
 3.00998E-01
 3.00998E-01
 3.00998E-01
 3.00998E-01
 3.00998E-01
 3.00998E-01
 3.00998E-01
 3.00998E-01
 3.00998E-01
 3.00998E-01
 3.00998E-01
 3.00998E-01
 3.00998E-01
 3.00998E-01
 3.00998E-01
 3.00998E-01
 3.00998E-01
 3.00998E-01
 3.00998E-01
 3.00998E-01
 3.00998E-01
 3.00998E-01
 3.00998E-01
 3.00998E-01
 3.00998E-01
 3.00998E-01
 3.00998E-01
 3.00998E-01
 3.00998E-01
 3.00998E-01
 3.00998E-01
 3.00998E-01
 3.00998E-01
 3.00998E-01
 3.00998E-01
 3.00998E-01
 3.00998E-01
 3.00998E-01
 3.00998E-01
 3.00998E-01
 3.00998E-01
 3.00998E-01
 3.00998E-01
 3.00998E-01
 3.00998E-01
 3.00998E-01
 3.00998E-01
 3.00998E-01
 3.00998E-01
 3.00998E-01
 3.00998E-01
 3.00998E-01
 3.00998E-01
 3.00998E-01
 3.00998E-01
 3.00998E-01
 3.00998E-01
 3.00998E-01
 3.00998E-01
 3.00998E-01
 3.00998E-01
 3.00998E-01
 3.00998E-01
 3.00998E-01
 3.00998E-01
 3.00998E-01
 3.00998E-01
 3.00998E-01
 3.00998E-01
 3.00998E-01
 3.00998E-01
 3.00998E-01
 3.00998E-01
 3.00998E-01
 3.00998E-01
 3.00998E-01
 3.00998E-01
 3.00998E-01
 3.00998E-01
 3.00998E-01
 3.00998E-01
 3.00998E-01
 3.00998E-01
 3.00998E-01
 3.00998E-01
 3.00998E-01
 3.00998E-01
 3.00998E-01
 3.00998E-01
 3.00998E-01
 3.00998E-01
 3.00998E-01
 3.00998E-01
 3.00998E-01
 3.00998E-01
 3.00998E-01
 3.00998E-01
 3.00998E-01
 3.00998E-01
 3.00998E-01
 3.00998E-01
 3.00998E-01
 3.00998E-01
 3.00998E-01
 3.00998E-01
 3.00998E-01
 3.00998E-01
 3.00998E-01
 3.00998E-01
 3.00998E-01
 3.00998E-01
 3.00998E-01
 3.00998E-01
 3.00998E-01
 3.00998E-01
 3.00998E-01
 3.00998E-01
 3.00998E-01
 3.00998E-01
 3.00998E-01
 3.00998E-01
 3.00998E-01
 3.00998E-01
 3.00998E-01
 3.00998E-01
 3.00998E-01
 3.00998E-01
 3.00998E-01
 3.00998E-01
 3.00998E-01
 3.00998E-01
 3.00998E-01
 3.00998E-01
 3.00998E-01
 3.00998E-01
 3.00998E-01
 3.00998E-01
 3.00998E-01
 3.00998E-01
 3.00998E-01
 3.00998E-01
 3.00998E-01
 3.00998E-01
 3.00998E-01
 3.00998E-01
 3.00998E-01
 3.00998E-01
 3.00998E-01
 3.00998E-01
 3.00998E-01
 3.00998E-01
 3.00998E-01
 3.00998E-01
 3.00998E-01
 3.00998E-01
 3.00998E-01
 3.00998E-01
 3.00998E-01
 3.00998E-01
 3.00998E-01
 3.00998E-01
 3.00998E-01
 3.00998E-01
 3.00998E-01
 3.00998E-01
 3.00998E-01
 3.00998E-01
 3.00998E-01
 3.00998E-01
 3.00998E-01
 3.00998E-01
 3.00998E-01
 3.00998E-01
 3.00998E-01
 3.00998E-01
 3.00998E-01
 3.00998E-01
 3.00998E-01
 3.00998E-01
 3.00998E-01
 3.00998E-01
 3.00998E-01
 3.00998E-01
 3.00998E-01
 3.00998E-01
 3.00998E-01
 3.00998E-01
 3.00998E-01
 3.00998E-01
 3.00998E-01
 3.00998E-01
 3.00998E-01
 3.00998E-01
 3.00998E-01
 3.00998E-01
 3.00998E-01
 3.00998E-01
 3.00998E-01
 3.00998E-01
 3.00998E-01
 3.00998E-01
 3.00998E-01
 3.00998E-01
 3.00998E-01
 3.00998E-01
 3.00998E-01
 3.00998E-01
 3.00998E-01
 3.00998E-01
 3.00998E-01
 3.00998E-01
 3.00998E-01
 3.00998E-01
 3.00998E-01
 3.00998E-01
 SCALARS predictedDisp11 float  1                  
LOOKUP_TABLE default
 0.00000E+00
 1.00951E-01
 2.04961E-01
 3.10381E-01
 4.14384E-01
 5.15386E-01
-5.15103E-04
 1.01328E-01
 2.05469E-01
 3.10639E-01
 4.14699E-01
 5.16217E-01
-1.43049E-03
 1.01059E-01
 2.05423E-01
 3.10779E-01
 4.15256E-01
 5.17829E-01
-1.50330E-03
 1.00923E-01
 2.05403E-01
 3.10806E-01
 4.15478E-01
 5.18299E-01
-4.92733E-04
 1.01156E-01
 2.05285E-01
 3.10783E-01
 4.15321E-01
 5.17779E-01
 0.00000E+00
 1.01014E-01
 2.05261E-01
 3.11054E-01
 4.15733E-01
 5.17324E-01
-1.87280E-03
 9.97697E-02
 2.04707E-01
 3.11022E-01
 4.15745E-01
 5.17412E-01
-2.09348E-03
 1.00228E-01
 2.05103E-01
 3.11156E-01
 4.16169E-01
 5.18438E-01
-2.98646E-03
 9.98883E-02
 2.05210E-01
 3.11391E-01
 4.16555E-01
 5.19829E-01
-3.31517E-03
 9.99119E-02
 2.04987E-01
 3.11318E-01
 4.16838E-01
 5.20115E-01
-2.43806E-03
 9.98779E-02
 2.05068E-01
 3.11347E-01
 4.16698E-01
 5.19511E-01
-1.91309E-03
 9.99438E-02
 2.04822E-01
 3.11609E-01
 4.17103E-01
 5.19359E-01
-7.85972E-03
 9.72336E-02
 2.04121E-01
 3.12187E-01
 4.19461E-01
 5.23834E-01
-7.26872E-03
 9.70372E-02
 2.04612E-01
 3.12684E-01
 4.19279E-01
 5.24474E-01
-8.21084E-03
 9.76392E-02
 2.04522E-01
 3.12523E-01
 4.20012E-01
 5.24776E-01
-7.53617E-03
 9.71210E-02
 2.04645E-01
 3.12699E-01
 4.19840E-01
 5.25959E-01
-7.79833E-03
 9.75479E-02
 2.04237E-01
 3.12621E-01
 4.20550E-01
 5.25392E-01
-7.45315E-03
 9.69407E-02
 2.04471E-01
 3.12893E-01
 4.20386E-01
 5.26034E-01
-1.52231E-02
 9.52995E-02
 2.04910E-01
 3.13116E-01
 4.20519E-01
 5.31410E-01
-1.44039E-02
 9.66451E-02
 2.04666E-01
 3.12993E-01
 4.21990E-01
 5.29483E-01
-1.14640E-02
 9.64206E-02
 2.05284E-01
 3.13365E-01
 4.20861E-01
 5.30699E-01
-1.23864E-02
 9.74976E-02
 2.04972E-01
 3.13173E-01
 4.22186E-01
 5.30386E-01
-1.16244E-02
 9.59700E-02
 2.05177E-01
 3.13723E-01
 4.22141E-01
 5.33582E-01
-1.39587E-02
 9.71615E-02
 2.04719E-01
 3.13342E-01
 4.23444E-01
 5.34461E-01
-7.71347E-03
 1.05929E-01
 2.08094E-01
 3.09605E-01
 4.13964E-01
 5.26462E-01
-1.99353E-03
 1.04127E-01
 2.07821E-01
 3.10427E-01
 4.12925E-01
 5.25814E-01
-4.19678E-03
 1.06575E-01
 2.09053E-01
 3.11071E-01
 4.14092E-01
 5.20520E-01
-4.72631E-04
 1.05873E-01
 2.08836E-01
 3.10945E-01
 4.13710E-01
 5.24770E-01
-6.36725E-03
 1.06801E-01
 2.09320E-01
 3.12145E-01
 4.16206E-01
 5.22817E-01
-6.98304E-03
 1.05431E-01
 2.09855E-01
 3.11708E-01
 4.14426E-01
 5.28664E-01
 4.02427E-02
 1.35830E-01
 2.14873E-01
 3.01582E-01
 3.80967E-01
 4.76533E-01
 3.93260E-02
 1.36583E-01
 2.12261E-01
 3.01954E-01
 3.84946E-01
 4.67285E-01
 5.07653E-02
 1.33024E-01
 2.11001E-01
 3.06802E-01
 3.88278E-01
 4.79273E-01
 4.33550E-02
 1.33997E-01
 2.14641E-01
 3.10518E-01
 3.89329E-01
 4.72286E-01
 5.49902E-02
 1.37137E-01
 2.19521E-01
 3.09336E-01
 3.85743E-01
 4.83470E-01
 4.56495E-02
 1.40970E-01
 2.19542E-01
 3.06539E-01
 3.86351E-01
 4.82394E-01
 SCALARS predictedDisp12 float  1                  
LOOKUP_TABLE default
 0.00000E+00
-9.21954E-04
-2.26311E-03
-2.78376E-03
-2.30435E-03
-2.37174E-03
 1.00988E-01
 1.00914E-01
 1.00199E-01
 9.95610E-02
 9.92782E-02
 9.85577E-02
 2.05084E-01
 2.05143E-01
 2.04590E-01
 2.04065E-01
 2.03389E-01
 2.02795E-01
 3.10694E-01
 3.10443E-01
 3.10060E-01
 3.09530E-01
 3.08950E-01
 3.08626E-01
 4.14867E-01
 4.14644E-01
 4.14630E-01
 4.14276E-01
 4.13532E-01
 4.13366E-01
 5.15974E-01
 5.16245E-01
 5.17261E-01
 5.17103E-01
 5.15997E-01
 5.14959E-01
-1.80787E-03
-2.48438E-03
-3.78648E-03
-4.57368E-03
-4.20560E-03
-4.25413E-03
 9.98304E-02
 9.98606E-02
 9.90426E-02
 9.85949E-02
 9.80209E-02
 9.75369E-02
 2.04886E-01
 2.04805E-01
 2.04430E-01
 2.03675E-01
 2.03227E-01
 2.02388E-01
 3.11382E-01
 3.11020E-01
 3.10719E-01
 3.10101E-01
 3.09560E-01
 3.09240E-01
 4.16291E-01
 4.16174E-01
 4.15994E-01
 4.15693E-01
 4.14973E-01
 4.14791E-01
 5.18073E-01
 5.18536E-01
 5.19317E-01
 5.18991E-01
 5.17788E-01
 5.17066E-01
-7.71110E-03
-7.54131E-03
-8.93027E-03
-8.69765E-03
-9.48710E-03
-9.64927E-03
 9.74369E-02
 9.67588E-02
 9.69145E-02
 9.58846E-02
 9.58224E-02
 9.46502E-02
 2.04416E-01
 2.04453E-01
 2.03845E-01
 2.03470E-01
 2.02513E-01
 2.02187E-01
 3.12696E-01
 3.12698E-01
 3.12004E-01
 3.11627E-01
 3.10988E-01
 3.10671E-01
 4.20165E-01
 4.19447E-01
 4.19626E-01
 4.18858E-01
 4.18985E-01
 4.18225E-01
 5.24625E-01
 5.24752E-01
 5.24446E-01
 5.25002E-01
 5.23832E-01
 5.23891E-01
-1.47011E-02
-1.44608E-02
-1.19545E-02
-1.33696E-02
-1.30497E-02
-1.59003E-02
 9.57683E-02
 9.66487E-02
 9.58882E-02
 9.65197E-02
 9.44661E-02
 9.51826E-02
 2.05469E-01
 2.04710E-01
 2.04847E-01
 2.03996E-01
 2.03707E-01
 2.02680E-01
 3.13828E-01
 3.13207E-01
 3.13061E-01
 3.12312E-01
 3.12314E-01
 3.11334E-01
 4.21363E-01
 4.22376E-01
 4.20662E-01
 4.21421E-01
 4.20761E-01
 4.21473E-01
 5.32417E-01
 5.29960E-01
 5.30610E-01
 5.29636E-01
 5.32228E-01
 5.32468E-01
-6.61538E-03
-1.43560E-03
-4.25341E-03
-9.66193E-04
-7.29461E-03
-8.15545E-03
 1.07045E-01
 1.04622E-01
 1.06602E-01
 1.05347E-01
 1.05878E-01
 1.04024E-01
 2.09028E-01
 2.08291E-01
 2.08958E-01
 2.08278E-01
 2.08217E-01
 2.08241E-01
 3.10432E-01
 3.10826E-01
 3.10937E-01
 3.10306E-01
 3.10927E-01
 3.09947E-01
 4.14781E-01
 4.13259E-01
 4.13995E-01
 4.13010E-01
 4.14949E-01
 4.12519E-01
 5.27270E-01
 5.26351E-01
 5.20508E-01
 5.24154E-01
 5.21521E-01
 5.26743E-01
 4.26797E-02
 4.10177E-02
 5.17357E-02
 4.39551E-02
 5.53021E-02
 4.56424E-02
 1.38098E-01
 1.38320E-01
 1.34130E-01
 1.34682E-01
 1.37266E-01
 1.40706E-01
 2.16614E-01
 2.13438E-01
 2.11708E-01
 2.14768E-01
 2.19052E-01
 2.18471E-01
 3.02288E-01
 3.02183E-01
 3.06657E-01
 3.09929E-01
 3.08125E-01
 3.04654E-01
 3.80970E-01
 3.84681E-01
 3.87633E-01
 3.88377E-01
 3.84259E-01
 3.84266E-01
 4.76644E-01
 4.67093E-01
 4.78819E-01
 4.71449E-01
 4.82028E-01
 4.80296E-01
 SCALARS predictedDisp13 float  1                  
LOOKUP_TABLE default
 0.00000E+00
 0.00000E+00
 0.00000E+00
 0.00000E+00
 0.00000E+00
 0.00000E+00
 0.00000E+00
 0.00000E+00
 0.00000E+00
 0.00000E+00
 0.00000E+00
 0.00000E+00
 0.00000E+00
 0.00000E+00
 0.00000E+00
 0.00000E+00
 0.00000E+00
 0.00000E+00
 0.00000E+00
 0.00000E+00
 0.00000E+00
 0.00000E+00
 0.00000E+00
 0.00000E+00
 0.00000E+00
 0.00000E+00
 0.00000E+00
 0.00000E+00
 0.00000E+00
 0.00000E+00
 0.00000E+00
 0.00000E+00
 0.00000E+00
 0.00000E+00
 0.00000E+00
 0.00000E+00
 1.95489E-01
 1.94106E-01
 1.95218E-01
 1.94795E-01
 1.93980E-01
 1.95019E-01
 1.94232E-01
 1.93665E-01
 1.94391E-01
 1.94570E-01
 1.93125E-01
 1.94600E-01
 1.95479E-01
 1.94530E-01
 1.95948E-01
 1.95779E-01
 1.95099E-01
 1.95928E-01
 1.95121E-01
 1.94777E-01
 1.95851E-01
 1.96365E-01
 1.95333E-01
 1.96753E-01
 1.94313E-01
 1.93336E-01
 1.95185E-01
 1.95352E-01
 1.95008E-01
 1.96033E-01
 1.95407E-01
 1.94869E-01
 1.96076E-01
 1.96839E-01
 1.96099E-01
 1.97938E-01
 3.85329E-01
 3.85926E-01
 3.88463E-01
 3.87850E-01
 3.84336E-01
 3.84547E-01
 3.86229E-01
 3.86508E-01
 3.90253E-01
 3.89463E-01
 3.86642E-01
 3.85625E-01
 3.89067E-01
 3.90566E-01
 3.93482E-01
 3.93580E-01
 3.90536E-01
 3.90184E-01
 3.88580E-01
 3.89910E-01
 3.93724E-01
 3.94276E-01
 3.92114E-01
 3.91560E-01
 3.85031E-01
 3.87055E-01
 3.90665E-01
 3.92125E-01
 3.89122E-01
 3.89769E-01
 3.85290E-01
 3.86084E-01
 3.90386E-01
 3.91652E-01
 3.89853E-01
 3.90158E-01
 5.59199E-01
 5.69512E-01
 5.75766E-01
 5.75444E-01
 5.67283E-01
 5.58777E-01
 5.70102E-01
 5.80390E-01
 5.87370E-01
 5.85893E-01
 5.78780E-01
 5.69428E-01
 5.76884E-01
 5.87940E-01
 5.93180E-01
 5.93917E-01
 5.87549E-01
 5.79171E-01
 5.76762E-01
 5.86653E-01
 5.94133E-01
 5.94245E-01
 5.90099E-01
 5.80505E-01
 5.68428E-01
 5.79360E-01
 5.87645E-01
 5.90027E-01
 5.84167E-01
 5.75224E-01
 5.59790E-01
 5.69890E-01
 5.79207E-01
 5.80445E-01
 5.75238E-01
 5.66278E-01
 7.10579E-01
 7.42614E-01
 7.55415E-01
 7.51488E-01
 7.38799E-01
 7.04877E-01
 7.43617E-01
 7.76403E-01
 7.88701E-01
 7.84636E-01
 7.75591E-01
 7.42203E-01
 7.57342E-01
 7.89657E-01
 7.95233E-01
 7.92740E-01
 7.86944E-01
 7.57015E-01
 7.53680E-01
 7.85857E-01
 7.93040E-01
 7.96321E-01
 7.92173E-01
 7.61829E-01
 7.40509E-01
 7.76288E-01
 7.86849E-01
 7.91932E-01
 7.81127E-01
 7.50069E-01
 7.05995E-01
 7.42350E-01
 7.56543E-01
 7.61377E-01
 7.49950E-01
 7.19448E-01
 8.34167E-01
 9.23200E-01
 9.16379E-01
 9.30483E-01
 8.99882E-01
 8.45449E-01
 9.24612E-01
 9.77645E-01
 1.01026E+00
 9.76508E-01
 9.96874E-01
 9.05085E-01
 9.19160E-01
 1.01190E+00
 9.75482E-01
 9.93071E-01
 9.79529E-01
 9.38222E-01
 9.33963E-01
 9.78463E-01
 9.93493E-01