# vtk DataFile Version 2.0
Output of NLACE
ASCII
DATASET UNSTRUCTURED_GRID
POINTS            8 FLOAT
 0.000000E+00  0.000000E+00  0.000000E+00
 1.052343E+01  0.000000E+00  0.000000E+00
 0.000000E+00  1.052343E+01  0.000000E+00
 1.052343E+01  1.052343E+01  0.000000E+00
 0.000000E+00  0.000000E+00 -9.029900E+00
 1.052343E+01  0.000000E+00 -9.029900E+00
 0.000000E+00  1.052343E+01 -9.029900E+00
 1.052343E+01  1.052343E+01 -9.029900E+00
CELLS            5          25
4    0    4    6    5
4    3    6    7    5
4    3    6    5    0
4    3    0    2    6
4    1    0    3    5
CELL_TYPES            5
10
10
10
10
10
POINT_DATA            8
 SCALARS measuredDisp11 float  1                   
LOOKUP_TABLE default
 0.00000E+00
 5.23435E-01
 0.00000E+00
 5.23435E-01
 0.00000E+00
 5.23435E-01
 0.00000E+00
 5.23435E-01
 SCALARS measuredDisp12 float  1                   
LOOKUP_TABLE default
 0.00000E+00
 0.00000E+00
 5.23435E-01
 5.23435E-01
 0.00000E+00
 0.00000E+00
 5.23435E-01
 5.23435E-01
 SCALARS measuredDisp13 float  1                   
LOOKUP_TABLE default
 0.00000E+00
 0.00000E+00
 0.00000E+00
 0.00000E+00
 9.70059E-01
 9.70059E-01
 9.70059E-01
 9.70059E-01
 SCALARS measuredDisp14 float  1                   
LOOKUP_TABLE default
 3.00998E-01
 3.00998E-01
 3.00998E-01
 3.00998E-01
 3.00998E-01
 3.00998E-01
 3.00998E-01
 3.00998E-01
 SCALARS predictedDisp11 float  1                  
LOOKUP_TABLE default
 0.00000E+00
 0.00000E+00
 0.00000E+00
 0.00000E+00
 0.00000E+00
 0.00000E+00
 0.00000E+00
 0.00000E+00
 SCALARS predictedDisp12 float  1                  
LOOKUP_TABLE default
 0.00000E+00
 0.00000E+00
 0.00000E+00
 0.00000E+00
 0.00000E+00
 0.00000E+00
 0.00000E+00
 0.00000E+00
 SCALARS predictedDisp13 float  1                  
LOOKUP_TABLE default
 0.00000E+00
 0.00000E+00
 0.00000E+00
 0.00000E+00
 0.00000E+00
 0.00000E+00
 0.00000E+00
 0.00000E+00
 SCALARS predictedDisp14 float  1                  
LOOKUP_TABLE default
 0.00000E+00
 0.00000E+00
 0.00000E+00
 0.00000E+00
 0.00000E+00
 0.00000E+00
 0.00000E+00
 0.00000E+00
 SCALARS dual11 float  1                           
LOOKUP_TABLE default
 0.00000E+00
 4.80960E+00
 0.00000E+00
 5.52438E+00
 6.63103E+00
 7.36358E+00
 6.84275E+00
 6.41401E+00
 SCALARS dual12 float  1                           
LOOKUP_TABLE default
 0.00000E+00
 0.00000E+00
 4.80960E+00
 5.52438E+00
 6.63103E+00
 6.84275E+00
 7.36358E+00
 6.41401E+00
 SCALARS dual13 float  1                           
LOOKUP_TABLE default
 0.00000E+00
 0.00000E+00
 0.00000E+00
 0.00000E+00
 7.26424E-01
 5.55353E+00
 5.55353E+00
 5.69000E+00
 SCALARS dual14 float  1                           
LOOKUP_TABLE default
 3.86448E-01
 3.41944E-01
 3.41944E-01
 2.17704E-01
 2.87341E-01
 1.97999E-01
 1.97999E-01
 4.70391E-02
 SCALARS NLP float  1                              
LOOKUP_TABLE default
 1.00000E+00
 1.00000E+00
 1.00000E+00
 1.00000E+00
 1.00000E+00
 1.00000E+00
 1.00000E+00
 1.00000E+00
 SCALARS SM float  1                               
LOOKUP_TABLE default
 3.00000E+00
 3.00000E+00
 3.00000E+00
 3.00000E+00
 3.00000E+00
 3.00000E+00
 3.00000E+00
 3.00000E+00
 SCALARS property3 float  1                        
LOOKUP_TABLE default
 0.00000E+00
 0.00000E+00
 0.00000E+00
 0.00000E+00
 0.00000E+00
 0.00000E+00
 0.00000E+00
 0.00000E+00
 SCALARS property4 float  1                        
LOOKUP_TABLE default
 0.00000E+00
 0.00000E+00
 0.00000E+00
 0.00000E+00
 0.00000E+00
 0.00000E+00
 0.00000E+00
 0.00000E+00
 SCALARS property5 float  1                        
LOOKUP_TABLE default
 0.00000E+00
 0.00000E+00
 0.00000E+00
 0.00000E+00
 0.00000E+00
 0.00000E+00
 0.00000E+00
 0.00000E+00
 SCALARS gradient1 float  1                        
LOOKUP_TABLE default
 0.00000E+00
 0.00000E+00
 0.00000E+00
 0.00000E+00
 0.00000E+00
 0.00000E+00
 0.00000E+00
 0.00000E+00
 SCALARS gradient2 float  1                        
LOOKUP_TABLE default
 0.00000E+00
 0.00000E+00
 0.00000E+00
 0.00000E+00
 0.00000E+00
 0.00000E+00
 0.00000E+00
 0.00000E+00
 SCALARS gradient3 float  1                        
LOOKUP_TABLE default
 0.00000E+00
 0.00000E+00
 0.00000E+00
 0.00000E+00
 0.00000E+00
 0.00000E+00
 0.00000E+00
 0.00000E+00
 SCALARS gradient4 float  1                        
LOOKUP_TABLE default
 0.00000E+00
 0.00000E+00
 0.00000E+00
 0.00000E+00
 0.00000E+00
 0.00000E+00
 0.00000E+00
 0.00000E+00
 SCALARS gradient5 float  1                        
LOOKUP_TABLE default
 0.00000E+00
 0.00000E+00
 0.00000E+00
 0.00000E+00
-5.79549E+01
-1.83360E+02
-1.83360E+02
-1.03762E+02
CELL_DATA           5
SCALARS elemDataMatch  float  1
LOOKUP_TABLE default
 5.16169E+01
 7.44488E+01
 7.44488E+01
 2.38241E+01
 2.38241E+01
SCALARS elemRegul  float  1
LOOKUP_TABLE default
 0.00000E+00
 0.00000E+00
 0.00000E+00
 0.00000E+00
 0.00000E+00
SCALARS l2grad2  float  1
LOOKUP_TABLE default
 0.00000E+00
 0.00000E+00
 0.00000E+00
 0.00000E+00
 0.00000E+00
