# vtk DataFile Version 2.0
Output of NLACE
ASCII
DATASET UNSTRUCTURED_GRID
POINTS            8 FLOAT
 0.000000E+00  0.000000E+00  0.000000E+00
 1.052343E+01  0.000000E+00  0.000000E+00
 0.000000E+00  1.052343E+01  0.000000E+00
 1.052343E+01  1.052343E+01  0.000000E+00
 0.000000E+00  0.000000E+00 -9.029900E+00
 1.052343E+01  0.000000E+00 -9.029900E+00
 0.000000E+00  1.052343E+01 -9.029900E+00
 1.052343E+01  1.052343E+01 -9.029900E+00
CELLS            5          25
4    0    4    6    5
4    3    6    7    5
4    3    6    5    0
4    3    0    2    6
4    1    0    3    5
CELL_TYPES            5
10
10
10
10
10
POINT_DATA            8
 SCALARS measuredDisp11 float  1                   
LOOKUP_TABLE default
 0.00000E+00
 5.23435E-01
 0.00000E+00
 5.23435E-01
 0.00000E+00
 5.23435E-01
 0.00000E+00
 5.23435E-01
 SCALARS measuredDisp12 float  1                   
LOOKUP_TABLE default
 0.00000E+00
 0.00000E+00
 5.23435E-01
 5.23435E-01
 0.00000E+00
 0.00000E+00
 5.23435E-01
 5.23435E-01
 SCALARS measuredDisp13 float  1                   
LOOKUP_TABLE default
 0.00000E+00
 0.00000E+00
 0.00000E+00
 0.00000E+00
 9.70059E-01
 9.70059E-01
 9.70059E-01
 9.70059E-01
 SCALARS measuredDisp14 float  1                   
LOOKUP_TABLE default
 3.00998E-01
 3.00998E-01
 3.00998E-01
 3.00998E-01
 3.00998E-01
 3.00998E-01
 3.00998E-01
 3.00998E-01
 SCALARS predictedDisp11 float  1                  
LOOKUP_TABLE default
 0.00000E+00
 5.69766E-01
 0.00000E+00
 5.86905E-01
-2.51425E-02
 5.50338E-01
-2.93728E-02
 5.45833E-01
 SCALARS predictedDisp12 float  1                  
LOOKUP_TABLE default
 0.00000E+00
 0.00000E+00
 5.69766E-01
 5.86905E-01
-2.51425E-02
-2.93728E-02
 5.50338E-01
 5.45833E-01
 SCALARS predictedDisp13 float  1                  
LOOKUP_TABLE default
 0.00000E+00
 0.00000E+00
 0.00000E+00
 0.00000E+00
 9.88921E-01
 9.26896E-01
 9.26896E-01
 8.08200E-01
 SCALARS predictedDisp14 float  1                  
LOOKUP_TABLE default
 3.19311E-01
 3.16644E-01
 3.16644E-01
 3.13758E-01
 3.19736E-01
 3.16187E-01
 3.16187E-01
 3.12237E-01
 SCALARS dual11 float  1                           
LOOKUP_TABLE default
 0.00000E+00
-1.03986E-01
 0.00000E+00
-1.60020E-01
-2.46801E-01
-1.37905E-01
-2.74817E-01
-9.94031E-02
 SCALARS dual12 float  1                           
LOOKUP_TABLE default
 0.00000E+00
 0.00000E+00
-1.03986E-01
-1.60020E-01
-2.46801E-01
-2.74817E-01
-1.37905E-01
-9.94031E-02
 SCALARS dual13 float  1                           
LOOKUP_TABLE default
 0.00000E+00
 0.00000E+00
 0.00000E+00
 0.00000E+00
 2.05714E-11
 3.13171E-11
 2.82548E-11
-9.07241E-11
 SCALARS dual14 float  1                           
LOOKUP_TABLE default
-1.36624E-01
-1.37553E-01
-1.37553E-01
-1.33697E-01
-1.28750E-01
-1.29546E-01
-1.29546E-01
-1.24606E-01
 SCALARS NLP float  1                              
LOOKUP_TABLE default
 1.00000E+00
 1.00000E+00
 1.00000E+00
 1.00000E+00
 1.00000E+00
 1.00000E+00
 1.00000E+00
 1.00000E+00
 SCALARS SM float  1                               
LOOKUP_TABLE default
 3.00000E+00
 3.00000E+00
 3.00000E+00
 3.00000E+00
 3.00000E+00
 3.00000E+00
 3.00000E+00
 3.00000E+00
 SCALARS property3 float  1                        
LOOKUP_TABLE default
 0.00000E+00
 0.00000E+00
 0.00000E+00
 0.00000E+00
 0.00000E+00
 0.00000E+00
 0.00000E+00
 0.00000E+00
 SCALARS property4 float  1                        
LOOKUP_TABLE default
 0.00000E+00
 0.00000E+00
 0.00000E+00
 0.00000E+00
 0.00000E+00
 0.00000E+00
 0.00000E+00
 0.00000E+00
 SCALARS property5 float  1                        
LOOKUP_TABLE default
 0.00000E+00
 0.00000E+00
 0.00000E+00
 0.00000E+00
 1.13290E+00
 1.10034E+00
 1.10034E+00
 8.05931E-01
 SCALARS gradient1 float  1                        
LOOKUP_TABLE default
 0.00000E+00
 0.00000E+00
 0.00000E+00
 0.00000E+00
 0.00000E+00
 0.00000E+00
 0.00000E+00
 0.00000E+00
 SCALARS gradient2 float  1                        
LOOKUP_TABLE default
 0.00000E+00
 0.00000E+00
 0.00000E+00
 0.00000E+00
 0.00000E+00
 0.00000E+00
 0.00000E+00
 0.00000E+00
 SCALARS gradient3 float  1                        
LOOKUP_TABLE default
 0.00000E+00
 0.00000E+00
 0.00000E+00
 0.00000E+00
 0.00000E+00
 0.00000E+00
 0.00000E+00
 0.00000E+00
 SCALARS gradient4 float  1                        
LOOKUP_TABLE default
 0.00000E+00
 0.00000E+00
 0.00000E+00
 0.00000E+00
 0.00000E+00
 0.00000E+00
 0.00000E+00
 0.00000E+00
 SCALARS gradient5 float  1                        
LOOKUP_TABLE default
 0.00000E+00
 0.00000E+00
 0.00000E+00
 0.00000E+00
 0.00000E+00
 0.00000E+00
 0.00000E+00
 0.00000E+00
CELL_DATA           5
SCALARS elemDataMatch  float  1
LOOKUP_TABLE default
 6.08134E-02
 4.90263E-01
 2.48749E-01
 1.47360E-01
 1.47360E-01
SCALARS elemRegul  float  1
LOOKUP_TABLE default
 0.00000E+00
 0.00000E+00
 0.00000E+00
 0.00000E+00
 0.00000E+00
SCALARS l2grad2  float  1
LOOKUP_TABLE default
 0.00000E+00
 0.00000E+00
 0.00000E+00
 0.00000E+00
 0.00000E+00
