# vtk DataFile Version 2.0
Output of NLACE
ASCII
DATASET UNSTRUCTURED_GRID
POINTS           48 FLOAT
 0.000000E+00  1.000000E+00 -5.000000E-01
 2.000000E+00  1.000000E+00 -5.000000E-01
 4.000000E+00  1.000000E+00 -5.000000E-01
 6.000000E+00  1.000000E+00 -5.000000E-01
 0.000000E+00  3.000000E+00 -5.000000E-01
 2.000000E+00  3.000000E+00 -5.000000E-01
 4.000000E+00  3.000000E+00 -5.000000E-01
 6.000000E+00  3.000000E+00 -5.000000E-01
 0.000000E+00  5.000000E+00 -5.000000E-01
 2.000000E+00  5.000000E+00 -5.000000E-01
 4.000000E+00  5.000000E+00 -5.000000E-01
 6.000000E+00  5.000000E+00 -5.000000E-01
 0.000000E+00  1.000000E+00 -2.500000E+00
 2.000000E+00  1.000000E+00 -2.500000E+00
 4.000000E+00  1.000000E+00 -2.500000E+00
 6.000000E+00  1.000000E+00 -2.500000E+00
 0.000000E+00  3.000000E+00 -2.500000E+00
 2.000000E+00  3.000000E+00 -2.500000E+00
 4.000000E+00  3.000000E+00 -2.500000E+00
 6.000000E+00  3.000000E+00 -2.500000E+00
 0.000000E+00  5.000000E+00 -2.500000E+00
 2.000000E+00  5.000000E+00 -2.500000E+00
 4.000000E+00  5.000000E+00 -2.500000E+00
 6.000000E+00  5.000000E+00 -2.500000E+00
 0.000000E+00  1.000000E+00 -4.500000E+00
 2.000000E+00  1.000000E+00 -4.500000E+00
 4.000000E+00  1.000000E+00 -4.500000E+00
 6.000000E+00  1.000000E+00 -4.500000E+00
 0.000000E+00  3.000000E+00 -4.500000E+00
 2.000000E+00  3.000000E+00 -4.500000E+00
 4.000000E+00  3.000000E+00 -4.500000E+00
 6.000000E+00  3.000000E+00 -4.500000E+00
 0.000000E+00  5.000000E+00 -4.500000E+00
 2.000000E+00  5.000000E+00 -4.500000E+00
 4.000000E+00  5.000000E+00 -4.500000E+00
 6.000000E+00  5.000000E+00 -4.500000E+00
 0.000000E+00  1.000000E+00 -6.500000E+00
 2.000000E+00  1.000000E+00 -6.500000E+00
 4.000000E+00  1.000000E+00 -6.500000E+00
 6.000000E+00  1.000000E+00 -6.500000E+00
 0.000000E+00  3.000000E+00 -6.500000E+00
 2.000000E+00  3.000000E+00 -6.500000E+00
 4.000000E+00  3.000000E+00 -6.500000E+00
 6.000000E+00  3.000000E+00 -6.500000E+00
 0.000000E+00  5.000000E+00 -6.500000E+00
 2.000000E+00  5.000000E+00 -6.500000E+00
 4.000000E+00  5.000000E+00 -6.500000E+00
 6.000000E+00  5.000000E+00 -6.500000E+00
CELLS           90         450
4    0   12   16   13
4    5   16   17   13
4    5   16   13    0
4    5    0    4   16
4    1    0    5   13
4    5   13   17   18
4    2   13   18   14
4    2   13    5   18
4    1   13    5    2
4    6    5   18    2
4    2   14   18   15
4    7   18   19   15
4    7   18   15    2
4    7    2    6   18
4    3    2    7   15
4    8   16   20   21
4    5   16   21   17
4    5   16    8   21
4    4   16    8    5
4    9    8   21    5
4    5   17   21   18
4   10   21   22   18
4   10   21   18    5
4   10    5    9   21
4    6    5   10   18
4   10   18   22   23
4    7   18   23   19
4    7   18   10   23
4    6   18   10    7
4   11   10   23    7
4   12   24   28   25
4   17   28   29   25
4   17   28   25   12
4   17   12   16   28
4   13   12   17   25
4   17   25   29   30
4   14   25   30   26
4   14   25   17   30
4   13   25   17   14
4   18   17   30   14
4   14   26   30   27
4   19   30   31   27
4   19   30   27   14
4   19   14   18   30
4   15   14   19   27
4   20   28   32   33
4   17   28   33   29
4   17   28   20   33
4   16   28   20   17
4   21   20   33   17
4   17   29   33   30
4   22   33   34   30
4   22   33   30   17
4   22   17   21   33
4   18   17   22   30
4   22   30   34   35
4   19   30   35   31
4   19   30   22   35
4   18   30   22   19
4   23   22   35   19
4   24   36   40   37
4   29   40   41   37
4   29   40   37   24
4   29   24   28   40
4   25   24   29   37
4   29   37   41   42
4   26   37   42   38
4   26   37   29   42
4   25   37   29   26
4   30   29   42   26
4   26   38   42   39
4   31   42   43   39
4   31   42   39   26
4   31   26   30   42
4   27   26   31   39
4   32   40   44   45
4   29   40   45   41
4   29   40   32   45
4   28   40   32   29
4   33   32   45   29
4   29   41   45   42
4   34   45   46   42
4   34   45   42   29
4   34   29   33   45
4   30   29   34   42
4   34   42   46   47
4   31   42   47   43
4   31   42   34   47
4   30   42   34   31
4   35   34   47   31
CELL_TYPES           90
10
10
10
10
10
10
10
10
10
10
10
10
10
10
10
10
10
10
10
10
10
10
10
10
10
10
10
10
10
10
10
10
10
10
10
10
10
10
10
10
10
10
10
10
10
10
10
10
10
10
10
10
10
10
10
10
10
10
10
10
10
10
10
10
10
10
10
10
10
10
10
10
10
10
10
10
10
10
10
10
10
10
10
10
10
10
10
10
10
10
POINT_DATA           48
 SCALARS predictedDisp11 float  1                  
LOOKUP_TABLE default
-3.31756E-02
-3.00458E-02
-2.71115E-02
-2.43746E-02
-3.31379E-02
-3.00000E-02
-2.71800E-02
-2.45769E-02
-3.31753E-02
-3.00455E-02
-2.71111E-02
-2.43743E-02
-3.32812E-02
-3.01841E-02
-2.70242E-02
-2.41598E-02
-3.31810E-02
-3.00953E-02
-2.71303E-02
-2.44577E-02
-3.32809E-02
-3.01837E-02
-2.70238E-02
-2.41594E-02
-3.31300E-02
-3.02985E-02
-2.71368E-02
-2.40828E-02
-3.28595E-02
-3.01744E-02
-2.72152E-02
-2.42284E-02
-3.31296E-02
-3.02982E-02
-2.71365E-02
-2.40824E-02
-3.30126E-02
-3.03182E-02
-2.72267E-02
-2.40323E-02
-3.28658E-02
-3.03142E-02
-2.72124E-02
-2.39173E-02
-3.30122E-02
-3.03179E-02
-2.72264E-02
-2.40320E-02
 SCALARS predictedDisp12 float  1                  
LOOKUP_TABLE default
-3.05554E-03
-3.00685E-03
-2.67689E-03
-2.72159E-03
 1.71526E-07
 0.00000E+00
-1.71498E-07
-3.42978E-07
 3.05588E-03
 3.00685E-03
 2.67654E-03
 2.72090E-03
-3.07197E-03
-3.13677E-03
-2.86088E-03
-2.90519E-03
 1.71529E-07
 8.15855E-12
-1.71503E-07
-3.42988E-07
 3.07232E-03
 3.13677E-03
 2.86054E-03
 2.90450E-03
-2.84370E-03
-2.86734E-03
-3.02911E-03
-3.02755E-03
 1.71502E-07
 1.49332E-11
-1.71495E-07
-3.43008E-07
 2.84404E-03
 2.86734E-03
 3.02877E-03
 3.02687E-03
-2.70488E-03
-2.84355E-03
-3.23698E-03
-3.13987E-03
 1.71502E-07
 2.69064E-11
-1.71496E-07
-3.43034E-07
 2.70522E-03
 2.84355E-03
 3.23664E-03
 3.13918E-03
 SCALARS predictedDisp13 float  1                  
LOOKUP_TABLE default
 1.00000E-03
 1.00000E-03
 1.00000E-03
 1.00000E-03
 1.00000E-03
 1.00000E-03
 1.00000E-03
 1.00000E-03
 1.00000E-03
 1.00000E-03
 1.00000E-03
 1.00000E-03
 7.00000E-03
 7.00000E-03
 7.00000E-03
 7.00000E-03
 7.00000E-03
 9.41836E-03
 4.85542E-03
 7.00000E-03
 7.00000E-03
 7.00000E-03
 7.00000E-03
 7.00000E-03
 1.40000E-02
 1.40000E-02
 1.40000E-02
 1.40000E-02
 1.40000E-02
 1.57783E-02
 1.12826E-02
 1.40000E-02
 1.40000E-02
 1.40000E-02
 1.40000E-02
 1.40000E-02
 2.00000E-02
 2.00000E-02
 2.00000E-02
 2.00000E-02
 2.00000E-02
 1.90000E-02
 1.90000E-02
 2.00000E-02
 2.00000E-02
 2.00000E-02
 2.00000E-02
 2.00000E-02
 SCALARS predictedDisp14 float  1                  
LOOKUP_TABLE default
 3.16354E-03
 3.14603E-03
 3.02505E-03
 3.09756E-03
 3.17607E-03
 3.15483E-03
 3.01096E-03
 3.04600E-03
 3.16354E-03
 3.14603E-03
 3.02505E-03
 3.09756E-03
 3.22766E-03
 3.19188E-03
 3.13402E-03
 3.14816E-03
 3.23298E-03
 3.19702E-03
 3.10746E-03
 3.17212E-03
 3.22766E-03
 3.19188E-03
 3.13402E-03
 3.14816E-03
 3.11502E-03
 3.09096E-03
 3.07196E-03
 3.14073E-03
 3.15222E-03
 3.01598E-03
 3.11419E-03
 3.10533E-03
 3.11502E-03
 3.09096E-03
 3.07196E-03
 3.14073E-03
 3.00120E-03
 2.86808E-03
 2.96098E-03
 2.97063E-03
 2.93879E-03
 2.83417E-03
 2.93871E-03
 2.98681E-03
 3.00120E-03
 2.86808E-03
 2.96098E-03
 2.97063E-03
 SCALARS NLP float  1                              
LOOKUP_TABLE default
 0.00000E+00
 0.00000E+00
 0.00000E+00
 0.00000E+00
 0.00000E+00
 0.00000E+00
 0.00000E+00
 0.00000E+00
 0.00000E+00
 0.00000E+00
 0.00000E+00
 0.00000E+00
 0.00000E+00
 0.00000E+00
 0.00000E+00
 0.00000E+00
 0.00000E+00
 0.00000E+00
 0.00000E+00
 0.00000E+00
 0.00000E+00
 0.00000E+00
 0.00000E+00
 0.00000E+00
 0.00000E+00
 0.00000E+00
 0.00000E+00
 0.00000E+00
 0.00000E+00
 0.00000E+00
 0.00000E+00
 0.00000E+00
 0.00000E+00
 0.00000E+00
 0.00000E+00
 0.00000E+00
 0.00000E+00
 0.00000E+00
 0.00000E+00
 0.00000E+00
 0.00000E+00
 0.00000E+00
 0.00000E+00
 0.00000E+00
 0.00000E+00
 0.00000E+00
 0.00000E+00
 0.00000E+00
 SCALARS SM float  1                               
LOOKUP_TABLE default
 1.05000E+00
 1.05000E+00
 1.05000E+00
 1.05000E+00
 1.05000E+00
 1.05000E+00
 1.05000E+00
 1.05000E+00
 1.05000E+00
 1.05000E+00
 1.05000E+00
 1.05000E+00
 1.05000E+00
 1.05000E+00
 1.05000E+00
 1.05000E+00
 1.05000E+00
 1.05000E+00
 1.05000E+00
 1.05000E+00
 1.05000E+00
 1.05000E+00
 1.05000E+00
 1.05000E+00
 1.05000E+00
 1.05000E+00
 1.05000E+00
 1.05000E+00
 1.05000E+00
 1.05000E+00
 1.05000E+00
 1.05000E+00
 1.05000E+00
 1.05000E+00
 1.05000E+00
 1.05000E+00
 1.05000E+00
 1.05000E+00
 1.05000E+00
 1.05000E+00
 1.05000E+00
 1.05000E+00
 1.05000E+00
 1.05000E+00
 1.05000E+00
 1.05000E+00
 1.05000E+00
 1.05000E+00
