# vtk DataFile Version 2.0
Output of NLACE
ASCII
DATASET UNSTRUCTURED_GRID
POINTS           88 FLOAT
 6.000000E-01  2.500000E-01  0.000000E+00
 6.500000E-01  2.500000E-01  0.000000E+00
 7.000000E-01  2.500000E-01  0.000000E+00
 7.500000E-01  2.500000E-01  0.000000E+00
 8.000000E-01  2.500000E-01  0.000000E+00
 8.500000E-01  2.500000E-01  0.000000E+00
 9.000000E-01  2.500000E-01  0.000000E+00
 9.500000E-01  2.500000E-01  0.000000E+00
 6.000000E-01  3.000000E-01  0.000000E+00
 6.500000E-01  3.000000E-01  0.000000E+00
 7.000000E-01  3.000000E-01  0.000000E+00
 7.500000E-01  3.000000E-01  0.000000E+00
 8.000000E-01  3.000000E-01  0.000000E+00
 8.500000E-01  3.000000E-01  0.000000E+00
 9.000000E-01  3.000000E-01  0.000000E+00
 9.500000E-01  3.000000E-01  0.000000E+00
 6.000000E-01  3.500000E-01  0.000000E+00
 6.500000E-01  3.500000E-01  0.000000E+00
 7.000000E-01  3.500000E-01  0.000000E+00
 7.500000E-01  3.500000E-01  0.000000E+00
 8.000000E-01  3.500000E-01  0.000000E+00
 8.500000E-01  3.500000E-01  0.000000E+00
 9.000000E-01  3.500000E-01  0.000000E+00
 9.500000E-01  3.500000E-01  0.000000E+00
 6.000000E-01  4.000000E-01  0.000000E+00
 6.500000E-01  4.000000E-01  0.000000E+00
 7.000000E-01  4.000000E-01  0.000000E+00
 7.500000E-01  4.000000E-01  0.000000E+00
 8.000000E-01  4.000000E-01  0.000000E+00
 8.500000E-01  4.000000E-01  0.000000E+00
 9.000000E-01  4.000000E-01  0.000000E+00
 9.500000E-01  4.000000E-01  0.000000E+00
 6.000000E-01  4.500000E-01  0.000000E+00
 6.500000E-01  4.500000E-01  0.000000E+00
 7.000000E-01  4.500000E-01  0.000000E+00
 7.500000E-01  4.500000E-01  0.000000E+00
 8.000000E-01  4.500000E-01  0.000000E+00
 8.500000E-01  4.500000E-01  0.000000E+00
 9.000000E-01  4.500000E-01  0.000000E+00
 9.500000E-01  4.500000E-01  0.000000E+00
 6.000000E-01  5.000000E-01  0.000000E+00
 6.500000E-01  5.000000E-01  0.000000E+00
 7.000000E-01  5.000000E-01  0.000000E+00
 7.500000E-01  5.000000E-01  0.000000E+00
 8.000000E-01  5.000000E-01  0.000000E+00
 8.500000E-01  5.000000E-01  0.000000E+00
 9.000000E-01  5.000000E-01  0.000000E+00
 9.500000E-01  5.000000E-01  0.000000E+00
 6.000000E-01  5.500000E-01  0.000000E+00
 6.500000E-01  5.500000E-01  0.000000E+00
 7.000000E-01  5.500000E-01  0.000000E+00
 7.500000E-01  5.500000E-01  0.000000E+00
 8.000000E-01  5.500000E-01  0.000000E+00
 8.500000E-01  5.500000E-01  0.000000E+00
 9.000000E-01  5.500000E-01  0.000000E+00
 9.500000E-01  5.500000E-01  0.000000E+00
 6.000000E-01  6.000000E-01  0.000000E+00
 6.500000E-01  6.000000E-01  0.000000E+00
 7.000000E-01  6.000000E-01  0.000000E+00
 7.500000E-01  6.000000E-01  0.000000E+00
 8.000000E-01  6.000000E-01  0.000000E+00
 8.500000E-01  6.000000E-01  0.000000E+00
 9.000000E-01  6.000000E-01  0.000000E+00
 9.500000E-01  6.000000E-01  0.000000E+00
 6.000000E-01  6.500000E-01  0.000000E+00
 6.500000E-01  6.500000E-01  0.000000E+00
 7.000000E-01  6.500000E-01  0.000000E+00
 7.500000E-01  6.500000E-01  0.000000E+00
 8.000000E-01  6.500000E-01  0.000000E+00
 8.500000E-01  6.500000E-01  0.000000E+00
 9.000000E-01  6.500000E-01  0.000000E+00
 9.500000E-01  6.500000E-01  0.000000E+00
 6.000000E-01  7.000000E-01  0.000000E+00
 6.500000E-01  7.000000E-01  0.000000E+00
 7.000000E-01  7.000000E-01  0.000000E+00
 7.500000E-01  7.000000E-01  0.000000E+00
 8.000000E-01  7.000000E-01  0.000000E+00
 8.500000E-01  7.000000E-01  0.000000E+00
 9.000000E-01  7.000000E-01  0.000000E+00
 9.500000E-01  7.000000E-01  0.000000E+00
 6.000000E-01  7.500000E-01  0.000000E+00
 6.500000E-01  7.500000E-01  0.000000E+00
 7.000000E-01  7.500000E-01  0.000000E+00
 7.500000E-01  7.500000E-01  0.000000E+00
 8.000000E-01  7.500000E-01  0.000000E+00
 8.500000E-01  7.500000E-01  0.000000E+00
 9.000000E-01  7.500000E-01  0.000000E+00
 9.500000E-01  7.500000E-01  0.000000E+00
CELLS          140         560
           3           0           1           8
           3           1           9           8
           3           1           2           9
           3           2          10           9
           3           2           3          10
           3           3          11          10
           3           3           4          11
           3           4          12          11
           3           4           5          12
           3           5          13          12
           3           5           6          13
           3           6          14          13
           3           6           7          14
           3           7          15          14
           3           8           9          16
           3           9          17          16
           3           9          10          17
           3          10          18          17
           3          10          11          18
           3          11          19          18
           3          11          12          19
           3          12          20          19
           3          12          13          20
           3          13          21          20
           3          13          14          21
           3          14          22          21
           3          14          15          22
           3          15          23          22
           3          16          17          24
           3          17          25          24
           3          17          18          25
           3          18          26          25
           3          18          19          26
           3          19          27          26
           3          19          20          27
           3          20          28          27
           3          20          21          28
           3          21          29          28
           3          21          22          29
           3          22          30          29
           3          22          23          30
           3          23          31          30
           3          24          25          32
           3          25          33          32
           3          25          26          33
           3          26          34          33
           3          26          27          34
           3          27          35          34
           3          27          28          35
           3          28          36          35
           3          28          29          36
           3          29          37          36
           3          29          30          37
           3          30          38          37
           3          30          31          38
           3          31          39          38
           3          32          33          40
           3          33          41          40
           3          33          34          41
           3          34          42          41
           3          34          35          42
           3          35          43          42
           3          35          36          43
           3          36          44          43
           3          36          37          44
           3          37          45          44
           3          37          38          45
           3          38          46          45
           3          38          39          46
           3          39          47          46
           3          40          41          48
           3          41          49          48
           3          41          42          49
           3          42          50          49
           3          42          43          50
           3          43          51          50
           3          43          44          51
           3          44          52          51
           3          44          45          52
           3          45          53          52
           3          45          46          53
           3          46          54          53
           3          46          47          54
           3          47          55          54
           3          48          49          56
           3          49          57          56
           3          49          50          57
           3          50          58          57
           3          50          51          58
           3          51          59          58
           3          51          52          59
           3          52          60          59
           3          52          53          60
           3          53          61          60
           3          53          54          61
           3          54          62          61
           3          54          55          62
           3          55          63          62
           3          56          57          64
           3          57          65          64
           3          57          58          65
           3          58          66          65
           3          58          59          66
           3          59          67          66
           3          59          60          67
           3          60          68          67
           3          60          61          68
           3          61          69          68
           3          61          62          69
           3          62          70          69
           3          62          63          70
           3          63          71          70
           3          64          65          72
           3          65          73          72
           3          65          66          73
           3          66          74          73
           3          66          67          74
           3          67          75          74
           3          67          68          75
           3          68          76          75
           3          68          69          76
           3          69          77          76
           3          69          70          77
           3          70          78          77
           3          70          71          78
           3          71          79          78
           3          72          73          80
           3          73          81          80
           3          73          74          81
           3          74          82          81
           3          74          75          82
           3          75          83          82
           3          75          76          83
           3          76          84          83
           3          76          77          84
           3          77          85          84
           3          77          78          85
           3          78          86          85
           3          78          79          86
           3          79          87          86
CELL_TYPES          140
5
5
5
5
5
5
5
5
5
5
5
5
5
5
5
5
5
5
5
5
5
5
5
5
5
5
5
5
5
5
5
5
5
5
5
5
5
5
5
5
5
5
5
5
5
5
5
5
5
5
5
5
5
5
5
5
5
5
5
5
5
5
5
5
5
5
5
5
5
5
5
5
5
5
5
5
5
5
5
5
5
5
5
5
5
5
5
5
5
5
5
5
5
5
5
5
5
5
5
5
5
5
5
5
5
5
5
5
5
5
5
5
5
5
5
5
5
5
5
5
5
5
5
5
5
5
5
5
5
5
5
5
5
5
5
5
5
5
5
5
POINT_DATA           88
 SCALARS measuredDisp11 float  1                   
LOOKUP_TABLE default
 1.60000E-04
 2.36000E-04
 3.78000E-04
 5.10000E-04
 5.99000E-04
 7.16000E-04
 8.28000E-04
 9.85000E-04
 1.80000E-04
 2.39000E-04
 4.14000E-04
 4.16000E-04
 5.88000E-04
 7.34000E-04
 8.06000E-04
 9.81000E-04
 1.76000E-04
 3.33000E-04
 3.51000E-04
 3.74000E-04
 5.56000E-04
 6.67000E-04
 7.67000E-04
 8.85000E-04
 2.18000E-04
 3.55000E-04
 4.39000E-04
 5.02000E-04
 5.04000E-04
 5.75000E-04
 6.77000E-04
 7.85000E-04
 2.65000E-04
 4.09000E-04
 5.20000E-04
 5.11000E-04
 5.49000E-04
 5.82000E-04
 5.87000E-04
 8.10000E-04
 2.37000E-04
 3.57000E-04
 5.39000E-04
 4.27000E-04
 5.30000E-04
 6.13000E-04
 6.18000E-04
 6.40000E-04
 2.28000E-04
 3.42000E-04
 5.19000E-04
 4.62000E-04
 5.10000E-04
 6.02000E-04
 5.97000E-04
 8.01000E-04
 1.86000E-04
 3.10000E-04
 4.09000E-04
 5.36000E-04
 5.25000E-04
 5.93000E-04
 6.97000E-04
 7.79000E-04
 1.95000E-04
 2.72000E-04
 3.78000E-04
 4.81000E-04
 5.57000E-04
 6.59000E-04
 8.34000E-04
 8.67000E-04
 1.60000E-04
 2.57000E-04
 4.53000E-04
 4.60000E-04
 5.96000E-04
 7.29000E-04
 8.04000E-04
 9.40000E-04
 1.89000E-04
 2.52000E-04
 3.96000E-04
 4.41000E-04
 5.92000E-04
 7.39000E-04
 9.06000E-04
 9.78000E-04
 SCALARS measuredDisp12 float  1                   
LOOKUP_TABLE default
 1.52300E-03
 1.49400E-03
 1.47800E-03
 1.37500E-03
 1.37100E-03
 1.43200E-03
 1.39700E-03
 1.51600E-03
 1.38600E-03
 1.43000E-03
 1.32100E-03
 1.30900E-03
 1.23200E-03
 1.34200E-03
 1.36900E-03
 1.42900E-03
 1.33200E-03
 1.28300E-03
 1.24700E-03
 1.17400E-03
 1.18700E-03
 1.18400E-03
 1.29500E-03
 1.29500E-03
 1.24200E-03
 1.18800E-03
 1.17600E-03
 1.10000E-03
 1.03800E-03
 1.10900E-03
 1.10200E-03
 1.21700E-03
 1.17100E-03
 1.07600E-03
 1.04500E-03
 1.00900E-03
 1.10900E-03
 1.02900E-03
 1.06300E-03
 1.06500E-03
 1.01900E-03
 1.01900E-03
 1.02100E-03
 9.31000E-04
 1.04200E-03
 1.03900E-03
 9.84000E-04
 9.95000E-04
 8.93000E-04
 9.46000E-04
 9.82000E-04
 9.78000E-04
 9.54000E-04
 9.32000E-04
 9.23000E-04
 9.56000E-04
 7.84000E-04
 7.58000E-04
 8.28000E-04
 9.00000E-04
 8.74000E-04
 9.25000E-04
 9.24000E-04
 8.07000E-04
 6.60000E-04
 7.70000E-04
 8.23000E-04
 8.59000E-04
 8.85000E-04
 8.07000E-04
 7.87000E-04
 7.12000E-04
 6.24000E-04
 5.67000E-04
 6.54000E-04
 7.09000E-04
 7.34000E-04
 7.27000E-04
 6.30000E-04
 5.98000E-04
 5.12000E-04
 4.59000E-04
 5.47000E-04
 5.89000E-04
 5.95000E-04
 6.48000E-04
 5.20000E-04
 5.02000E-04
 SCALARS measuredDisp13 float  1                   
LOOKUP_TABLE default
 4.29600E-03
 4.18100E-03
 3.88600E-03
 3.35800E-03
 2.89100E-03
 2.65600E-03
 2.88000E-03
 3.45500E-03
 3.90000E-03
 4.22100E-03
 4.36400E-03
 4.57000E-03
 4.40600E-03
 4.19500E-03
 3.50900E-03
 2.40800E-03
 1.94000E-03
 2.46100E-03
 3.62000E-03
 4.16300E-03
 4.47600E-03
 4.46600E-03
 4.78600E-03
 4.80500E-03
 4.93700E-03
 4.25500E-03
 2.31600E-03
 1.88700E-03
 2.38500E-03
 4.28500E-03
 4.91200E-03
 4.83700E-03
 4.72200E-03
 4.96400E-03
 5.38100E-03
 6.06900E-03
 6.07100E-03
 4.27400E-03
 4.92200E-03
 4.25300E-03
 6.04200E-03
 5.92800E-03
 5.38200E-03
 4.95300E-03
 5.07000E-03
 5.52600E-03
 6.50000E-03
 6.48300E-03
 4.17200E-03
 4.60700E-03
 4.15100E-03
 6.49300E-03
 6.53600E-03
 5.54200E-03
 4.97000E-03
 4.91300E-03
 5.20500E-03
 5.77700E-03
 5.89600E-03
 4.72800E-03
 5.21500E-03
 4.68700E-03
 5.95300E-03
 5.91800E-03
 5.28800E-03
 4.83100E-03
 4.44600E-03
 4.59100E-03
 4.75900E-03
 4.39000E-03
 3.38200E-03
 3.30100E-03
 3.37800E-03
 4.42100E-03
 4.84600E-03
 4.59600E-03
 4.50300E-03
 4.02500E-03
 4.02900E-03
 4.05400E-03
 3.98400E-03
 3.87100E-03
 3.62800E-03
 3.77000E-03
 3.99600E-03
 4.05500E-03
 4.02200E-03
 4.00000E-03
 SCALARS predictedDisp11 float  1                  
LOOKUP_TABLE default
 1.96980E-04
 2.92181E-04
 3.78000E-04
 4.91553E-04
 6.25645E-04
 7.32129E-04
 8.55464E-04
 9.67269E-04
 2.13887E-04
 3.12695E-04
 4.15061E-04
 5.14658E-04
 6.15181E-04
 7.15275E-04
 8.09996E-04
 8.97934E-04
 2.29269E-04
 3.34521E-04
 4.34936E-04
 5.26184E-04
 6.12747E-04
 6.97185E-04
 7.80757E-04
 8.70256E-04
 2.65189E-04
 3.63086E-04
 4.56114E-04
 5.38660E-04
 6.13188E-04
 6.85198E-04
 7.60144E-04
 8.36324E-04
 3.03607E-04
 3.93883E-04
 4.76314E-04
 5.48896E-04
 6.14915E-04
 6.80587E-04
 7.50698E-04
 8.26859E-04
 3.27622E-04
 4.08635E-04
 4.85381E-04
 5.53673E-04
 6.17816E-04
 6.84307E-04
 7.57943E-04
 8.41476E-04
 3.10761E-04
 3.98851E-04
 4.79778E-04
 5.51414E-04
 6.19039E-04
 6.87829E-04
 7.60805E-04
 8.37754E-04
 2.76867E-04
 3.72911E-04
 4.62565E-04
 5.43366E-04
 6.18576E-04
 6.92682E-04
 7.70373E-04
 8.58885E-04
 2.25472E-04
 3.34071E-04
 4.38460E-04
 5.33228E-04
 6.21067E-04
 7.07407E-04
 7.96887E-04
 8.95084E-04
 1.89514E-04
 3.08126E-04
 4.18364E-04
 5.22525E-04
 6.23028E-04
 7.24604E-04
 8.23887E-04
 9.26049E-04
 2.03606E-04
 2.97919E-04
 3.84208E-04
 5.01804E-04
 6.15385E-04
 7.44159E-04
 8.71077E-04
 9.60116E-04
 SCALARS predictedDisp12 float  1                  
LOOKUP_TABLE default
 1.52300E-03
 1.49400E-03
 1.47800E-03
 1.37500E-03
 1.37100E-03
 1.43200E-03
 1.39700E-03
 1.51600E-03
 1.38600E-03
 1.38288E-03
 1.35281E-03
 1.30298E-03
 1.29335E-03
 1.31600E-03
 1.33814E-03
 1.42900E-03
 1.33200E-03
 1.28340E-03
 1.24581E-03
 1.21367E-03
 1.20373E-03
 1.21711E-03
 1.24528E-03
 1.29500E-03
 1.24200E-03
 1.18749E-03
 1.15196E-03
 1.13007E-03
 1.12484E-03
 1.13495E-03
 1.15925E-03
 1.21700E-03
 1.17100E-03
 1.10207E-03
 1.07390E-03
 1.06178E-03
 1.06046E-03
 1.06594E-03
 1.07320E-03
 1.06500E-03
 1.01900E-03
 1.00870E-03
 1.00132E-03
 9.99119E-04
 1.00042E-03
 1.00248E-03
 1.00303E-03
 9.95000E-04
 8.93000E-04
 9.16745E-04
 9.27935E-04
 9.34805E-04
 9.37963E-04
 9.37394E-04
 9.36196E-04
 9.56000E-04
 7.84000E-04
 8.23229E-04
 8.49041E-04
 8.65139E-04
 8.71313E-04
 8.67119E-04
 8.48242E-04
 8.07000E-04
 6.60000E-04
 7.17247E-04
 7.54681E-04
 7.79846E-04
 7.90028E-04
 7.84704E-04
 7.51679E-04
 7.12000E-04
 6.24000E-04
 6.06571E-04
 6.47406E-04
 6.80996E-04
 6.94786E-04
 6.99840E-04
 6.43816E-04
 5.98000E-04
 5.12000E-04
 4.59000E-04
 5.47000E-04
 5.89000E-04
 5.95000E-04
 6.48000E-04
 5.20000E-04
 5.02000E-04
 SCALARS predictedDisp13 float  1                  
LOOKUP_TABLE default
 4.26471E-03
 4.18842E-03
 3.92108E-03
 3.40470E-03
 3.21377E-03
 3.33862E-03
 3.25812E-03
 3.28378E-03
 4.05836E-03
 4.01251E-03
 3.84490E-03
 3.50211E-03
 3.43344E-03
 3.50525E-03
 3.52657E-03
 3.67227E-03
 3.87544E-03
 3.93192E-03
 3.87816E-03
 3.72312E-03
 3.69386E-03
 3.78618E-03
 3.91267E-03
 4.01624E-03
 4.02792E-03
 4.04067E-03
 3.97459E-03
 3.86570E-03
 3.84578E-03
 3.94418E-03
 4.11319E-03
 4.29986E-03
 4.50128E-03
 4.41676E-03
 4.17361E-03
 3.98978E-03
 3.92795E-03
 4.00246E-03
 4.19025E-03
 4.28134E-03
 4.92902E-03
 4.68058E-03
 4.33966E-03
 4.09332E-03
 3.96798E-03
 3.94846E-03
 3.97445E-03
 3.95237E-03
 4.86535E-03
 4.66021E-03
 4.37323E-03
 4.14085E-03
 4.00822E-03
 3.98577E-03
 4.04768E-03
 4.16806E-03
 4.64438E-03
 4.53017E-03
 4.33454E-03
 4.14654E-03
 4.03674E-03
 4.05605E-03
 4.22526E-03
 4.31554E-03
 4.31808E-03
 4.32802E-03
 4.26296E-03
 4.08925E-03
 3.95706E-03
 3.92898E-03
 4.08146E-03
 4.16818E-03
 4.31313E-03
 4.44724E-03
 4.26621E-03
 3.95584E-03
 3.74779E-03
 3.65067E-03
 3.91951E-03
 4.06872E-03
 4.61778E-03
 4.60895E-03
 4.22118E-03
 3.84152E-03
 3.54813E-03
 3.46734E-03
 3.86862E-03
 3.99278E-03
 SCALARS dual11 float  1                           
LOOKUP_TABLE default
-1.79941E-10
 1.28233E-09
 0.00000E+00
 3.85262E-09
 1.17392E-08
 2.03032E-08
 2.27370E-08
 2.42083E-08
 3.61351E-09
 3.60938E-09
 4.10339E-09
 6.39789E-09
 1.27725E-08
 1.60883E-08
 1.70569E-08
 2.02654E-08
 1.48249E-08
 1.45918E-08
 1.26765E-08
 1.14449E-08
 1.00941E-08
 7.74206E-09
 4.93028E-09
 6.31962E-09
 3.15499E-08
 2.79357E-08
 2.32117E-08
 1.70392E-08
 8.53136E-09
-2.52934E-09
-9.47687E-09
-1.56265E-08
 4.54460E-08
 3.88988E-08
 3.16951E-08
 2.09289E-08
 5.56789E-09
-8.95385E-09
-2.12199E-08
-3.24811E-08
 5.02206E-08
 4.13957E-08
 3.28957E-08
 2.04670E-08
 4.41429E-09
-1.01625E-08
-2.27905E-08
-3.65913E-08
 3.93685E-08
 3.25296E-08
 2.66673E-08
 1.66333E-08
 6.04373E-09
-3.42264E-09
-1.30132E-08
-2.46796E-08
 1.50001E-08
 1.41353E-08
 1.21477E-08
 9.68946E-09
 8.85711E-09
 7.86875E-09
 7.54502E-09
 6.07867E-09
-1.65956E-08
-1.31436E-08
-7.87687E-09
 9.92298E-10
 1.22228E-08
 2.50996E-08
 3.68679E-08
 4.64471E-08
-4.93193E-08
-3.70848E-08
-2.46517E-08
-5.51798E-09
 1.85398E-08
 4.21384E-08
 6.16297E-08
 7.73191E-08
-6.30305E-08
-4.82135E-08
-3.12996E-08
-6.27026E-09
 2.32796E-08
 5.01351E-08
 6.97737E-08
 8.61781E-08
 SCALARS dual12 float  1                           
LOOKUP_TABLE default
 0.00000E+00
 0.00000E+00
 0.00000E+00
 0.00000E+00
 0.00000E+00
 0.00000E+00
 0.00000E+00
 0.00000E+00
 0.00000E+00
 9.73490E-09
-1.17231E-08
-2.40715E-08
-3.57394E-08
-8.03456E-09
 9.88805E-09
 0.00000E+00
 0.00000E+00
 2.23664E-09
-1.29567E-08
-4.01676E-08
-4.65218E-08
-2.54158E-08
 3.36890E-09
 0.00000E+00
 0.00000E+00
 7.53466E-10
-8.79895E-09
-3.65400E-08
-4.28431E-08
-2.55840E-08
-1.65934E-08
 0.00000E+00
 0.00000E+00
-2.89705E-10
-4.71757E-09
-1.65742E-08
 1.12355E-09
-1.27085E-09
-3.86982E-09
 0.00000E+00
 0.00000E+00
 1.39018E-08
 2.19496E-08
 1.95576E-08
 4.05564E-08
 3.38953E-08
 1.23967E-08
 0.00000E+00
 0.00000E+00
 2.42029E-08
 4.80150E-08
 6.42599E-08
 7.05063E-08
 5.66950E-08
 3.22355E-08
 0.00000E+00
 0.00000E+00
 1.47401E-08
 5.62995E-08
 9.12714E-08
 9.72530E-08
 9.02638E-08
 6.14917E-08
 0.00000E+00
 0.00000E+00
 3.07479E-08
 7.52253E-08
 1.10700E-07
 1.19399E-07
 9.28635E-08
 5.43064E-08
 0.00000E+00
 0.00000E+00
 1.01785E-08
 4.21500E-08
 6.88697E-08
 7.40439E-08
 5.49713E-08
 2.41123E-08
 0.00000E+00
 0.00000E+00
 0.00000E+00
 0.00000E+00
 0.00000E+00
 0.00000E+00
 0.00000E+00
 0.00000E+00
 0.00000E+00
 SCALARS dual13 float  1                           
LOOKUP_TABLE default
-1.12856E-07
-1.45948E-07
-3.14454E-07
-4.94409E-07
-5.60476E-07
-4.19601E-07
-2.15660E-07
-1.39612E-07
-8.98617E-08
-1.45473E-07
-2.72039E-07
-3.97622E-07
-4.20681E-07
-3.26129E-07
-2.07081E-07
-1.62097E-07
-3.17297E-08
-4.80117E-08
-6.12382E-08
-8.58860E-08
-9.25251E-08
-1.08891E-07
-1.12489E-07
-1.04648E-07
 1.16602E-07
 1.46878E-07
 2.52964E-07
 3.75038E-07
 4.48817E-07
 3.45130E-07
 1.98234E-07
 1.49217E-07
 2.84399E-07
 3.88350E-07
 6.47381E-07
 9.23848E-07
 1.02428E-06
 8.46349E-07
 5.71771E-07
 4.17856E-07
 3.98083E-07
 5.44568E-07
 8.72665E-07
 1.18004E-06
 1.22988E-06
 1.02990E-06
 7.33561E-07
 5.61429E-07
 3.06258E-07
 4.21491E-07
 7.13089E-07
 9.90787E-07
 1.03445E-06
 9.12424E-07
 6.87009E-07
 5.35082E-07
 9.03207E-08
 1.74769E-07
 3.45142E-07
 4.89361E-07
 5.21200E-07
 4.31859E-07
 2.76155E-07
 2.06369E-07
-1.39180E-07
-1.72894E-07
-2.60771E-07
-3.26579E-07
-3.61334E-07
-3.57939E-07
-2.94947E-07
-2.14239E-07
-4.35526E-07
-5.64629E-07
-8.45840E-07
-1.07617E-06
-1.12347E-06
-9.63393E-07
-6.83752E-07
-4.99701E-07
-5.20532E-07
-7.18455E-07
-1.10289E-06
-1.38597E-06
-1.39803E-06
-1.13634E-06
-7.64250E-07
-5.76882E-07
 SCALARS NLP float  1                              
LOOKUP_TABLE default
 0.00000E+00
 0.00000E+00
 0.00000E+00
 0.00000E+00
 0.00000E+00
 0.00000E+00
 0.00000E+00
 0.00000E+00
 0.00000E+00
 0.00000E+00
 0.00000E+00
 0.00000E+00
 0.00000E+00
 0.00000E+00
 0.00000E+00
 0.00000E+00
 0.00000E+00
 0.00000E+00
 0.00000E+00
 0.00000E+00
 0.00000E+00
 0.00000E+00
 0.00000E+00
 0.00000E+00
 0.00000E+00
 0.00000E+00
 0.00000E+00
 0.00000E+00
 0.00000E+00
 0.00000E+00
 0.00000E+00
 0.00000E+00
 0.00000E+00
 0.00000E+00
 0.00000E+00
 0.00000E+00
 0.00000E+00
 0.00000E+00
 0.00000E+00
 0.00000E+00
 0.00000E+00
 0.00000E+00
 0.00000E+00
 0.00000E+00
 0.00000E+00
 0.00000E+00
 0.00000E+00
 0.00000E+00
 0.00000E+00
 0.00000E+00
 0.00000E+00
 0.00000E+00
 0.00000E+00
 0.00000E+00
 0.00000E+00
 0.00000E+00
 0.00000E+00
 0.00000E+00
 0.00000E+00
 0.00000E+00
 0.00000E+00
 0.00000E+00
 0.00000E+00
 0.00000E+00
 0.00000E+00
 0.00000E+00
 0.00000E+00
 0.00000E+00
 0.00000E+00
 0.00000E+00
 0.00000E+00
 0.00000E+00
 0.00000E+00
 0.00000E+00
 0.00000E+00
 0.00000E+00
 0.00000E+00
 0.00000E+00
 0.00000E+00
 0.00000E+00
 0.00000E+00
 0.00000E+00
 0.00000E+00
 0.00000E+00
 0.00000E+00
 0.00000E+00
 0.00000E+00
 0.00000E+00
 SCALARS SM float  1                               
LOOKUP_TABLE default
 1.00224E+00
 1.02993E+00
 1.01600E+00
 1.00000E+00
 1.00000E+00
 1.00000E+00
 1.00000E+00
 1.00000E+00
 1.00000E+00
 1.01034E+00
 1.00000E+00
 1.00000E+00
 1.00000E+00
 1.00000E+00
 1.03011E+00
 1.01681E+00
 1.03104E+00
 1.00566E+00
 1.05357E+00
 1.02161E+00
 1.01675E+00
 1.02413E+00
 1.00000E+00
 1.00000E+00
 1.11185E+00
 1.13437E+00
 1.17651E+00
 1.25201E+00
 1.32188E+00
 1.27354E+00
 1.19959E+00
 1.16163E+00
 1.19268E+00
 1.24687E+00
 1.36344E+00
 1.43439E+00
 1.50002E+00
 1.44056E+00
 1.33396E+00
 1.26738E+00
 1.24015E+00
 1.28183E+00
 1.41212E+00
 1.51766E+00
 1.49770E+00
 1.44177E+00
 1.36617E+00
 1.29134E+00
 1.21231E+00
 1.25376E+00
 1.35941E+00
 1.44145E+00
 1.44159E+00
 1.39508E+00
 1.35606E+00
 1.23337E+00
 1.12269E+00
 1.15908E+00
 1.25131E+00
 1.30507E+00
 1.30759E+00
 1.25188E+00
 1.12801E+00
 1.05558E+00
 1.02017E+00
 1.01957E+00
 1.00000E+00
 1.00000E+00
 1.00000E+00
 1.00000E+00
 1.00000E+00
 1.00000E+00
 1.00000E+00
 1.00000E+00
 1.00000E+00
 1.00000E+00
 1.00000E+00
 1.00000E+00
 1.00000E+00
 1.00000E+00
 1.00000E+00
 1.00000E+00
 1.00000E+00
 1.00000E+00
 1.00000E+00
 1.00000E+00
 1.00000E+00
 1.00000E+00
 SCALARS gradient1 float  1                        
LOOKUP_TABLE default
 0.00000E+00
 0.00000E+00
 0.00000E+00
 0.00000E+00
 0.00000E+00
 0.00000E+00
 0.00000E+00
 0.00000E+00
 0.00000E+00
 0.00000E+00
 0.00000E+00
 0.00000E+00
 0.00000E+00
 0.00000E+00
 0.00000E+00
 0.00000E+00
 0.00000E+00
 0.00000E+00
 0.00000E+00
 0.00000E+00
 0.00000E+00
 0.00000E+00
 0.00000E+00
 0.00000E+00
 0.00000E+00
 0.00000E+00
 0.00000E+00
 0.00000E+00
 0.00000E+00
 0.00000E+00
 0.00000E+00
 0.00000E+00
 0.00000E+00
 0.00000E+00
 0.00000E+00
 0.00000E+00
 0.00000E+00
 0.00000E+00
 0.00000E+00
 0.00000E+00
 0.00000E+00
 0.00000E+00
 0.00000E+00
 0.00000E+00
 0.00000E+00
 0.00000E+00
 0.00000E+00
 0.00000E+00
 0.00000E+00
 0.00000E+00
 0.00000E+00
 0.00000E+00
 0.00000E+00
 0.00000E+00
 0.00000E+00
 0.00000E+00
 0.00000E+00
 0.00000E+00
 0.00000E+00
 0.00000E+00
 0.00000E+00
 0.00000E+00
 0.00000E+00
 0.00000E+00
 0.00000E+00
 0.00000E+00
 0.00000E+00
 0.00000E+00
 0.00000E+00
 0.00000E+00
 0.00000E+00
 0.00000E+00
 0.00000E+00
 0.00000E+00
 0.00000E+00
 0.00000E+00
 0.00000E+00
 0.00000E+00
 0.00000E+00
 0.00000E+00
 0.00000E+00
 0.00000E+00
 0.00000E+00
 0.00000E+00
 0.00000E+00
 0.00000E+00
 0.00000E+00
 0.00000E+00
 SCALARS gradient2 float  1                        
LOOKUP_TABLE default
-1.09864E-12
 3.43645E-12
 2.69782E-12
 1.44385E-12
 3.58248E-12
 2.18453E-12
-2.21539E-12
-1.21285E-12
-2.48653E-12
 1.67196E-12
-3.80363E-12
 2.35695E-12
 1.94291E-12
-1.70671E-12
 7.62886E-12
 1.02113E-12
 1.77734E-12
-5.77057E-12
 2.56133E-12
-5.99900E-13
-2.36796E-13
 1.42913E-12
-4.50659E-12
-2.17978E-12
-9.27992E-13
-1.19654E-12
-1.26568E-12
-2.20583E-12
-2.58699E-12
-2.29500E-12
-1.26611E-12
-1.48341E-12
-1.81479E-12
-1.51559E-12
-2.24129E-12
-4.89010E-12
-1.29572E-12
-2.86810E-12
-2.95851E-12
-2.48028E-12
-1.71561E-12
-1.66815E-12
-2.40504E-12
 8.13644E-13
-3.94427E-12
-3.66912E-12
-2.35060E-12
-3.01779E-12
-2.10407E-12
-1.05429E-12
-2.23192E-12
-3.34069E-12
-3.24945E-12
-3.80265E-12
-2.90413E-12
-2.49859E-12
-8.09571E-13
-1.33380E-12
-1.77530E-12
-2.87487E-12
-2.98172E-12
-2.63951E-12
-1.11682E-12
-4.04748E-13
-2.79315E-13
 1.72293E-12
-6.62112E-13
 1.51221E-12
 2.40277E-12
 3.30171E-12
 3.26662E-12
 9.65324E-13
 7.10443E-13
 4.58959E-12
 1.00308E-11
 1.40535E-11
 1.55981E-11
 1.25131E-11
 8.64324E-12
 2.51799E-12
 1.61526E-12
 3.91744E-12
 6.93934E-12
 9.72121E-12
 9.32406E-12
 5.96436E-12
 3.65857E-12
 5.10462E-13
CELL_DATA         140
SCALARS elemDataMatch  float  1
LOOKUP_TABLE default
 0.00000E+00
 2.31310E-13
 2.31310E-13
 1.80574E-13
 1.05421E-13
 8.92374E-14
 3.78067E-15
 3.57340E-13
 3.92059E-13
 2.96319E-13
 7.04287E-14
 2.53224E-13
 9.92068E-14
 9.92068E-14
 2.31310E-13
 2.29372E-13
 1.79956E-13
 1.02926E-13
 8.61994E-14
 1.38814E-13
 7.49904E-13
 1.01476E-12
 3.87093E-13
 1.36472E-13
 1.71297E-13
 3.52810E-13
 5.16522E-13
 2.57488E-13
 1.65206E-17
 2.25503E-17
 1.82904E-16
 6.46957E-14
 1.23013E-13
 2.67950E-13
 5.33126E-13
 1.38458E-12
 1.43729E-12
 1.59335E-12
 2.25425E-13
 3.92867E-13
 3.02394E-13
 3.41394E-13
 2.72456E-17
 6.94337E-14
 6.56358E-14
 1.58853E-13
 1.84281E-13
 8.86274E-13
 2.08468E-12
 1.09263E-12
 7.65445E-13
 2.39539E-13
 1.02846E-12
 8.14685E-13
 4.13047E-13
 1.08346E-14
 7.07953E-14
 5.38732E-14
 1.88373E-13
 6.92842E-14
 4.09060E-13
 9.40605E-13
 7.82257E-13
 4.79604E-13
 4.31065E-13
 3.18773E-13
 1.51806E-13
 9.64946E-14
 6.87528E-14
 3.77060E-14
 1.10601E-14
 1.31616E-13
 2.53081E-13
 7.69578E-13
 4.15747E-13
 5.35325E-13
 4.43336E-13
 7.29903E-13
 6.34379E-13
 2.00202E-13
 9.74449E-14
 1.03133E-13
 8.19968E-14
 1.81387E-14
 8.91545E-14
 3.33581E-13
 4.35467E-13
 4.50919E-13
 5.75046E-13
 3.52844E-13
 6.34991E-13
 2.26615E-13
 2.45401E-14
 3.34924E-13
 2.65475E-13
 1.23801E-12
 5.11841E-13
 5.97837E-13
 4.43207E-13
 3.74654E-13
 4.48112E-13
 9.32268E-13
 6.80856E-13
 2.36426E-12
 1.09933E-12
 2.42473E-12
 1.90466E-12
 2.26792E-12
 1.76574E-12
 1.31630E-12
 1.00653E-12
 1.29957E-13
 2.89888E-13
 2.35550E-13
 8.15564E-13
 3.91977E-13
 1.80797E-12
 1.04336E-12
 2.96487E-12
 1.96078E-12
 1.85110E-12
 5.53895E-13
 5.03620E-13
 2.36685E-13
 9.90069E-14
 1.98841E-14
 1.63111E-13
 1.63111E-13
 1.40458E-13
 4.52989E-15
 1.05455E-13
 8.16884E-14
 3.56255E-13
 1.60178E-13
 3.47957E-13
 7.68378E-14
 5.76342E-14
 1.98841E-14
 1.98841E-14
 0.00000E+00
SCALARS elemRegul  float  1
LOOKUP_TABLE default
 3.47293E-14
 2.76967E-14
 3.00583E-14
 2.38126E-14
 2.82868E-14
 3.12500E-16
 3.12500E-16
 3.12500E-16
 3.12500E-16
 3.12500E-16
 3.12500E-16
 5.32239E-14
 3.76356E-14
 2.67935E-14
 4.08958E-14
 3.22612E-14
 1.41839E-14
 8.98429E-14
 6.69676E-14
 4.82298E-14
 2.70144E-14
 2.18038E-14
 2.09405E-14
 3.15385E-14
 4.82286E-14
 4.82286E-14
 4.11436E-14
 2.10128E-14
 1.05880E-13
 1.63331E-13
 1.71673E-13
 1.62443E-13
 1.58776E-13
 3.03066E-13
 2.88061E-13
 3.91291E-13
 3.81528E-13
 3.17567E-13
 3.13219E-13
 2.66063E-13
 2.49492E-13
 2.07537E-13
 1.04881E-13
 1.56087E-13
 1.50164E-13
 2.75370E-13
 2.52000E-13
 2.44619E-13
 2.44135E-13
 2.37304E-13
 2.30726E-13
 2.21615E-13
 2.28326E-13
 2.14398E-13
 1.74531E-13
 1.56203E-13
 9.00527E-14
 6.80074E-14
 1.52124E-13
 1.73862E-13
 1.07562E-13
 1.68038E-13
 1.32534E-13
 2.51144E-14
 7.43799E-14
 6.99354E-14
 1.33263E-13
 1.02715E-13
 9.24520E-14
 9.82158E-14
 6.26538E-14
 6.25743E-14
 1.66599E-13
 1.47584E-13
 1.47459E-13
 1.39967E-13
 9.84745E-14
 7.01406E-14
 9.90368E-14
 8.23710E-14
 1.11060E-13
 5.03851E-14
 9.43871E-14
 1.69627E-13
 1.23427E-13
 1.26789E-13
 1.77330E-13
 1.77619E-13
 1.69627E-13
 1.83234E-13
 1.70466E-13
 1.67525E-13
 1.77297E-13