# vtk DataFile Version 2.0
Output of NLACE
ASCII
DATASET UNSTRUCTURED_GRID
POINTS           88 FLOAT
 6.000000E-01  2.500000E-01  0.000000E+00
 6.500000E-01  2.500000E-01  0.000000E+00
 7.000000E-01  2.500000E-01  0.000000E+00
 7.500000E-01  2.500000E-01  0.000000E+00
 8.000000E-01  2.500000E-01  0.000000E+00
 8.500000E-01  2.500000E-01  0.000000E+00
 9.000000E-01  2.500000E-01  0.000000E+00
 9.500000E-01  2.500000E-01  0.000000E+00
 6.000000E-01  3.000000E-01  0.000000E+00
 6.500000E-01  3.000000E-01  0.000000E+00
 7.000000E-01  3.000000E-01  0.000000E+00
 7.500000E-01  3.000000E-01  0.000000E+00
 8.000000E-01  3.000000E-01  0.000000E+00
 8.500000E-01  3.000000E-01  0.000000E+00
 9.000000E-01  3.000000E-01  0.000000E+00
 9.500000E-01  3.000000E-01  0.000000E+00
 6.000000E-01  3.500000E-01  0.000000E+00
 6.500000E-01  3.500000E-01  0.000000E+00
 7.000000E-01  3.500000E-01  0.000000E+00
 7.500000E-01  3.500000E-01  0.000000E+00
 8.000000E-01  3.500000E-01  0.000000E+00
 8.500000E-01  3.500000E-01  0.000000E+00
 9.000000E-01  3.500000E-01  0.000000E+00
 9.500000E-01  3.500000E-01  0.000000E+00
 6.000000E-01  4.000000E-01  0.000000E+00
 6.500000E-01  4.000000E-01  0.000000E+00
 7.000000E-01  4.000000E-01  0.000000E+00
 7.500000E-01  4.000000E-01  0.000000E+00
 8.000000E-01  4.000000E-01  0.000000E+00
 8.500000E-01  4.000000E-01  0.000000E+00
 9.000000E-01  4.000000E-01  0.000000E+00
 9.500000E-01  4.000000E-01  0.000000E+00
 6.000000E-01  4.500000E-01  0.000000E+00
 6.500000E-01  4.500000E-01  0.000000E+00
 7.000000E-01  4.500000E-01  0.000000E+00
 7.500000E-01  4.500000E-01  0.000000E+00
 8.000000E-01  4.500000E-01  0.000000E+00
 8.500000E-01  4.500000E-01  0.000000E+00
 9.000000E-01  4.500000E-01  0.000000E+00
 9.500000E-01  4.500000E-01  0.000000E+00
 6.000000E-01  5.000000E-01  0.000000E+00
 6.500000E-01  5.000000E-01  0.000000E+00
 7.000000E-01  5.000000E-01  0.000000E+00
 7.500000E-01  5.000000E-01  0.000000E+00
 8.000000E-01  5.000000E-01  0.000000E+00
 8.500000E-01  5.000000E-01  0.000000E+00
 9.000000E-01  5.000000E-01  0.000000E+00
 9.500000E-01  5.000000E-01  0.000000E+00
 6.000000E-01  5.500000E-01  0.000000E+00
 6.500000E-01  5.500000E-01  0.000000E+00
 7.000000E-01  5.500000E-01  0.000000E+00
 7.500000E-01  5.500000E-01  0.000000E+00
 8.000000E-01  5.500000E-01  0.000000E+00
 8.500000E-01  5.500000E-01  0.000000E+00
 9.000000E-01  5.500000E-01  0.000000E+00
 9.500000E-01  5.500000E-01  0.000000E+00
 6.000000E-01  6.000000E-01  0.000000E+00
 6.500000E-01  6.000000E-01  0.000000E+00
 7.000000E-01  6.000000E-01  0.000000E+00
 7.500000E-01  6.000000E-01  0.000000E+00
 8.000000E-01  6.000000E-01  0.000000E+00
 8.500000E-01  6.000000E-01  0.000000E+00
 9.000000E-01  6.000000E-01  0.000000E+00
 9.500000E-01  6.000000E-01  0.000000E+00
 6.000000E-01  6.500000E-01  0.000000E+00
 6.500000E-01  6.500000E-01  0.000000E+00
 7.000000E-01  6.500000E-01  0.000000E+00
 7.500000E-01  6.500000E-01  0.000000E+00
 8.000000E-01  6.500000E-01  0.000000E+00
 8.500000E-01  6.500000E-01  0.000000E+00
 9.000000E-01  6.500000E-01  0.000000E+00
 9.500000E-01  6.500000E-01  0.000000E+00
 6.000000E-01  7.000000E-01  0.000000E+00
 6.500000E-01  7.000000E-01  0.000000E+00
 7.000000E-01  7.000000E-01  0.000000E+00
 7.500000E-01  7.000000E-01  0.000000E+00
 8.000000E-01  7.000000E-01  0.000000E+00
 8.500000E-01  7.000000E-01  0.000000E+00
 9.000000E-01  7.000000E-01  0.000000E+00
 9.500000E-01  7.000000E-01  0.000000E+00
 6.000000E-01  7.500000E-01  0.000000E+00
 6.500000E-01  7.500000E-01  0.000000E+00
 7.000000E-01  7.500000E-01  0.000000E+00
 7.500000E-01  7.500000E-01  0.000000E+00
 8.000000E-01  7.500000E-01  0.000000E+00
 8.500000E-01  7.500000E-01  0.000000E+00
 9.000000E-01  7.500000E-01  0.000000E+00
 9.500000E-01  7.500000E-01  0.000000E+00
CELLS          140         560
           3           0           1           8
           3           1           9           8
           3           1           2           9
           3           2          10           9
           3           2           3          10
           3           3          11          10
           3           3           4          11
           3           4          12          11
           3           4           5          12
           3           5          13          12
           3           5           6          13
           3           6          14          13
           3           6           7          14
           3           7          15          14
           3           8           9          16
           3           9          17          16
           3           9          10          17
           3          10          18          17
           3          10          11          18
           3          11          19          18
           3          11          12          19
           3          12          20          19
           3          12          13          20
           3          13          21          20
           3          13          14          21
           3          14          22          21
           3          14          15          22
           3          15          23          22
           3          16          17          24
           3          17          25          24
           3          17          18          25
           3          18          26          25
           3          18          19          26
           3          19          27          26
           3          19          20          27
           3          20          28          27
           3          20          21          28
           3          21          29          28
           3          21          22          29
           3          22          30          29
           3          22          23          30
           3          23          31          30
           3          24          25          32
           3          25          33          32
           3          25          26          33
           3          26          34          33
           3          26          27          34
           3          27          35          34
           3          27          28          35
           3          28          36          35
           3          28          29          36
           3          29          37          36
           3          29          30          37
           3          30          38          37
           3          30          31          38
           3          31          39          38
           3          32          33          40
           3          33          41          40
           3          33          34          41
           3          34          42          41
           3          34          35          42
           3          35          43          42
           3          35          36          43
           3          36          44          43
           3          36          37          44
           3          37          45          44
           3          37          38          45
           3          38          46          45
           3          38          39          46
           3          39          47          46
           3          40          41          48
           3          41          49          48
           3          41          42          49
           3          42          50          49
           3          42          43          50
           3          43          51          50
           3          43          44          51
           3          44          52          51
           3          44          45          52
           3          45          53          52
           3          45          46          53
           3          46          54          53
           3          46          47          54
           3          47          55          54
           3          48          49          56
           3          49          57          56
           3          49          50          57
           3          50          58          57
           3          50          51          58
           3          51          59          58
           3          51          52          59
           3          52          60          59
           3          52          53          60
           3          53          61          60
           3          53          54          61
           3          54          62          61
           3          54          55          62
           3          55          63          62
           3          56          57          64
           3          57          65          64
           3          57          58          65
           3          58          66          65
           3          58          59          66
           3          59          67          66
           3          59          60          67
           3          60          68          67
           3          60          61          68
           3          61          69          68
           3          61          62          69
           3          62          70          69
           3          62          63          70
           3          63          71          70
           3          64          65          72
           3          65          73          72
           3          65          66          73
           3          66          74          73
           3          66          67          74
           3          67          75          74
           3          67          68          75
           3          68          76          75
           3          68          69          76
           3          69          77          76
           3          69          70          77
           3          70          78          77
           3          70          71          78
           3          71          79          78
           3          72          73          80
           3          73          81          80
           3          73          74          81
           3          74          82          81
           3          74          75          82
           3          75          83          82
           3          75          76          83
           3          76          84          83
           3          76          77          84
           3          77          85          84
           3          77          78          85
           3          78          86          85
           3          78          79          86
           3          79          87          86
CELL_TYPES          140
5
5
5
5
5
5
5
5
5
5
5
5
5
5
5
5
5
5
5
5
5
5
5
5
5
5
5
5
5
5
5
5
5
5
5
5
5
5
5
5
5
5
5
5
5
5
5
5
5
5
5
5
5
5
5
5
5
5
5
5
5
5
5
5
5
5
5
5
5
5
5
5
5
5
5
5
5
5
5
5
5
5
5
5
5
5
5
5
5
5
5
5
5
5
5
5
5
5
5
5
5
5
5
5
5
5
5
5
5
5
5
5
5
5
5
5
5
5
5
5
5
5
5
5
5
5
5
5
5
5
5
5
5
5
5
5
5
5
5
5
POINT_DATA           88
 SCALARS measuredDisp11 float  1                   
LOOKUP_TABLE default
 1.60000E-04
 2.36000E-04
 3.78000E-04
 5.10000E-04
 5.99000E-04
 7.16000E-04
 8.28000E-04
 9.85000E-04
 1.80000E-04
 2.39000E-04
 4.14000E-04
 4.16000E-04
 5.88000E-04
 7.34000E-04
 8.06000E-04
 9.81000E-04
 1.76000E-04
 3.33000E-04
 3.51000E-04
 3.74000E-04
 5.56000E-04
 6.67000E-04
 7.67000E-04
 8.85000E-04
 2.18000E-04
 3.55000E-04
 4.39000E-04
 5.02000E-04
 5.04000E-04
 5.75000E-04
 6.77000E-04
 7.85000E-04
 2.65000E-04
 4.09000E-04
 5.20000E-04
 5.11000E-04
 5.49000E-04
 5.82000E-04
 5.87000E-04
 8.10000E-04
 2.37000E-04
 3.57000E-04
 5.39000E-04
 4.27000E-04
 5.30000E-04
 6.13000E-04
 6.18000E-04
 6.40000E-04
 2.28000E-04
 3.42000E-04
 5.19000E-04
 4.62000E-04
 5.10000E-04
 6.02000E-04
 5.97000E-04
 8.01000E-04
 1.86000E-04
 3.10000E-04
 4.09000E-04
 5.36000E-04
 5.25000E-04
 5.93000E-04
 6.97000E-04
 7.79000E-04
 1.95000E-04
 2.72000E-04
 3.78000E-04
 4.81000E-04
 5.57000E-04
 6.59000E-04
 8.34000E-04
 8.67000E-04
 1.60000E-04
 2.57000E-04
 4.53000E-04
 4.60000E-04
 5.96000E-04
 7.29000E-04
 8.04000E-04
 9.40000E-04
 1.89000E-04
 2.52000E-04
 3.96000E-04
 4.41000E-04
 5.92000E-04
 7.39000E-04
 9.06000E-04
 9.78000E-04
 SCALARS measuredDisp12 float  1                   
LOOKUP_TABLE default
 1.52300E-03
 1.49400E-03
 1.47800E-03
 1.37500E-03
 1.37100E-03
 1.43200E-03
 1.39700E-03
 1.51600E-03
 1.38600E-03
 1.43000E-03
 1.32100E-03
 1.30900E-03
 1.23200E-03
 1.34200E-03
 1.36900E-03
 1.42900E-03
 1.33200E-03
 1.28300E-03
 1.24700E-03
 1.17400E-03
 1.18700E-03
 1.18400E-03
 1.29500E-03
 1.29500E-03
 1.24200E-03
 1.18800E-03
 1.17600E-03
 1.10000E-03
 1.03800E-03
 1.10900E-03
 1.10200E-03
 1.21700E-03
 1.17100E-03
 1.07600E-03
 1.04500E-03
 1.00900E-03
 1.10900E-03
 1.02900E-03
 1.06300E-03
 1.06500E-03
 1.01900E-03
 1.01900E-03
 1.02100E-03
 9.31000E-04
 1.04200E-03
 1.03900E-03
 9.84000E-04
 9.95000E-04
 8.93000E-04
 9.46000E-04
 9.82000E-04
 9.78000E-04
 9.54000E-04
 9.32000E-04
 9.23000E-04
 9.56000E-04
 7.84000E-04
 7.58000E-04
 8.28000E-04
 9.00000E-04
 8.74000E-04
 9.25000E-04
 9.24000E-04
 8.07000E-04
 6.60000E-04
 7.70000E-04
 8.23000E-04
 8.59000E-04
 8.85000E-04
 8.07000E-04
 7.87000E-04
 7.12000E-04
 6.24000E-04
 5.67000E-04
 6.54000E-04
 7.09000E-04
 7.34000E-04
 7.27000E-04
 6.30000E-04
 5.98000E-04
 5.12000E-04
 4.59000E-04
 5.47000E-04
 5.89000E-04
 5.95000E-04
 6.48000E-04
 5.20000E-04
 5.02000E-04
 SCALARS measuredDisp13 float  1                   
LOOKUP_TABLE default
 4.29600E-03
 4.18100E-03
 3.88600E-03
 3.35800E-03
 2.89100E-03
 2.65600E-03
 2.88000E-03
 3.45500E-03
 3.90000E-03
 4.22100E-03
 4.36400E-03
 4.57000E-03
 4.40600E-03
 4.19500E-03
 3.50900E-03
 2.40800E-03
 1.94000E-03
 2.46100E-03
 3.62000E-03
 4.16300E-03
 4.47600E-03
 4.46600E-03
 4.78600E-03
 4.80500E-03
 4.93700E-03
 4.25500E-03
 2.31600E-03
 1.88700E-03
 2.38500E-03
 4.28500E-03
 4.91200E-03
 4.83700E-03
 4.72200E-03
 4.96400E-03
 5.38100E-03
 6.06900E-03
 6.07100E-03
 4.27400E-03
 4.92200E-03
 4.25300E-03
 6.04200E-03
 5.92800E-03
 5.38200E-03
 4.95300E-03
 5.07000E-03
 5.52600E-03
 6.50000E-03
 6.48300E-03
 4.17200E-03
 4.60700E-03
 4.15100E-03
 6.49300E-03
 6.53600E-03
 5.54200E-03
 4.97000E-03
 4.91300E-03
 5.20500E-03
 5.77700E-03
 5.89600E-03
 4.72800E-03
 5.21500E-03
 4.68700E-03
 5.95300E-03
 5.91800E-03
 5.28800E-03
 4.83100E-03
 4.44600E-03
 4.59100E-03
 4.75900E-03
 4.39000E-03
 3.38200E-03
 3.30100E-03
 3.37800E-03
 4.42100E-03
 4.84600E-03
 4.59600E-03
 4.50300E-03
 4.02500E-03
 4.02900E-03
 4.05400E-03
 3.98400E-03
 3.87100E-03
 3.62800E-03
 3.77000E-03
 3.99600E-03
 4.05500E-03
 4.02200E-03
 4.00000E-03
 SCALARS predictedDisp11 float  1                  
LOOKUP_TABLE default
 1.91963E-04
 2.89701E-04
 3.78000E-04
 4.92823E-04
 6.29430E-04
 7.38371E-04
 8.63720E-04
 9.79777E-04
 2.10034E-04
 3.11735E-04
 4.15501E-04
 5.16142E-04
 6.18958E-04
 7.20654E-04
 8.17842E-04
 9.09156E-04
 2.29634E-04
 3.36558E-04
 4.36961E-04
 5.28841E-04
 6.16277E-04
 7.01100E-04
 7.85574E-04
 8.76305E-04
 2.71067E-04
 3.68773E-04
 4.61450E-04
 5.43111E-04
 6.16093E-04
 6.86696E-04
 7.60277E-04
 8.35556E-04
 3.13986E-04
 4.02778E-04
 4.83696E-04
 5.53649E-04
 6.17269E-04
 6.80279E-04
 7.47662E-04
 8.21251E-04
 3.39708E-04
 4.18624E-04
 4.93010E-04
 5.58696E-04
 6.19974E-04
 6.83121E-04
 7.53758E-04
 8.34123E-04
 3.21439E-04
 4.07870E-04
 4.87033E-04
 5.56256E-04
 6.20930E-04
 6.87093E-04
 7.57478E-04
 8.32141E-04
 2.82963E-04
 3.79131E-04
 4.68114E-04
 5.47092E-04
 6.20683E-04
 6.93239E-04
 7.70142E-04
 8.59584E-04
 2.25030E-04
 3.35758E-04
 4.40748E-04
 5.35718E-04
 6.24004E-04
 7.10988E-04
 8.02057E-04
 9.02859E-04
 1.84426E-04
 3.05943E-04
 4.18239E-04
 5.24508E-04
 6.27129E-04
 7.30872E-04
 8.32494E-04
 9.37437E-04
 1.96912E-04
 2.94455E-04
 3.83439E-04
 5.03700E-04
 6.19941E-04
 7.51308E-04
 8.80705E-04
 9.72412E-04
 SCALARS predictedDisp12 float  1                  
LOOKUP_TABLE default
 1.52300E-03
 1.49400E-03
 1.47800E-03
 1.37500E-03
 1.37100E-03
 1.43200E-03
 1.39700E-03
 1.51600E-03
 1.38600E-03
 1.38059E-03
 1.34979E-03
 1.30006E-03
 1.29021E-03
 1.31333E-03
 1.33595E-03
 1.42900E-03
 1.33200E-03
 1.27997E-03
 1.24132E-03
 1.20787E-03
 1.19725E-03
 1.21082E-03
 1.24054E-03
 1.29500E-03
 1.24200E-03
 1.18424E-03
 1.14691E-03
 1.12397E-03
 1.11872E-03
 1.12924E-03
 1.15496E-03
 1.21700E-03
 1.17100E-03
 1.10009E-03
 1.07109E-03
 1.05900E-03
 1.05747E-03
 1.06297E-03
 1.07102E-03
 1.06500E-03
 1.01900E-03
 1.00891E-03
 1.00179E-03
 9.99410E-04
 1.00063E-03
 1.00291E-03
 1.00331E-03
 9.95000E-04
 8.93000E-04
 9.19165E-04
 9.30978E-04
 9.38153E-04
 9.41741E-04
 9.41057E-04
 9.39227E-04
 9.56000E-04
 7.84000E-04
 8.27217E-04
 8.54742E-04
 8.71888E-04
 8.78350E-04
 8.73995E-04
 8.53699E-04
 8.07000E-04
 6.60000E-04
 7.21314E-04
 7.61139E-04
 7.87365E-04
 7.97506E-04
 7.91168E-04
 7.55781E-04
 7.12000E-04
 6.24000E-04
 6.08521E-04
 6.50578E-04
 6.84583E-04
 6.98362E-04
 7.02901E-04
 6.45705E-04
 5.98000E-04
 5.12000E-04
 4.59000E-04
 5.47000E-04
 5.89000E-04
 5.95000E-04
 6.48000E-04
 5.20000E-04
 5.02000E-04
 SCALARS predictedDisp13 float  1                  
LOOKUP_TABLE default
 4.34441E-03
 4.28480E-03
 4.05330E-03
 3.55082E-03
 3.35925E-03
 3.47229E-03
 3.36316E-03
 3.36455E-03
 4.13887E-03
 4.11224E-03
 3.97442E-03
 3.64379E-03
 3.57792E-03
 3.63981E-03
 3.63368E-03
 3.76191E-03
 3.95927E-03
 4.03121E-03
 3.99755E-03
 3.85175E-03
 3.82589E-03
 3.91211E-03
 4.02440E-03
 4.12419E-03
 4.12279E-03
 4.14087E-03
 4.07715E-03
 3.96827E-03
 3.95109E-03
 4.05674E-03
 4.23648E-03
 4.43741E-03
 4.62307E-03
 4.52989E-03
 4.26884E-03
 4.07542E-03
 4.01692E-03
 4.10937E-03
 4.32688E-03
 4.43887E-03
 5.07781E-03
 4.80822E-03
 4.44204E-03
 4.18155E-03
 4.05444E-03
 4.04653E-03
 4.09484E-03
 4.08639E-03
 5.00432E-03
 4.78191E-03
 4.47828E-03
 4.23509E-03
 4.09836E-03
 4.08171E-03
 4.15873E-03
 4.29145E-03
 4.75768E-03
 4.63951E-03
 4.44719E-03
 4.26054E-03
 4.14955E-03
 4.16834E-03
 4.33699E-03
 4.42094E-03
 4.41415E-03
 4.43587E-03
 4.39474E-03
 4.23381E-03
 4.10105E-03
 4.05946E-03
 4.18962E-03
 4.26005E-03
 4.40606E-03
 4.55997E-03
 4.41011E-03
 4.11672E-03
 3.90582E-03
 3.78666E-03
 4.02323E-03
 4.15377E-03
 4.70702E-03
 4.72239E-03
 4.36608E-03
 4.00315E-03
 3.70559E-03
 3.60053E-03
 3.96770E-03
 4.07595E-03
 SCALARS dual11 float  1                           
LOOKUP_TABLE default
 3.26611E-09
 3.04204E-09
 0.00000E+00
 1.56356E-09
 6.80450E-09
 1.26534E-08
 1.25121E-08
 1.11359E-08
 5.73634E-09
 4.15532E-09
 3.11754E-09
 3.58395E-09
 7.89391E-09
 9.11861E-09
 8.25927E-09
 9.57009E-09
 1.25934E-08
 1.17985E-08
 9.33526E-09
 7.53389E-09
 5.74092E-09
 3.03360E-09
-1.33000E-10
 8.92886E-10
 2.36917E-08
 2.09315E-08
 1.69713E-08
 1.19081E-08
 4.95504E-09
-4.51148E-09
-1.01101E-08
-1.48316E-08
 3.31083E-08
 2.85843E-08
 2.33195E-08
 1.51004E-08
 2.69792E-09
-8.87143E-09
-1.84199E-08
-2.70491E-08
 3.62834E-08
 3.00244E-08
 2.40422E-08
 1.45533E-08
 1.88082E-09
-9.31672E-09
-1.90215E-08
-2.98369E-08
 2.75499E-08
 2.28413E-08
 1.89600E-08
 1.13060E-08
 3.35983E-09
-3.65304E-09
-1.10207E-08
-2.04288E-08
 8.48684E-09
 8.39884E-09
 7.08968E-09
 5.47402E-09
 5.44699E-09
 5.16953E-09
 5.24753E-09
 4.10096E-09
-1.63549E-08
-1.37857E-08
-9.52522E-09
-1.95689E-09
 7.75612E-09
 1.89334E-08
 2.90360E-08
 3.70757E-08
-4.30798E-08
-3.33369E-08
-2.35164E-08
-7.57998E-09
 1.28981E-08
 3.30162E-08
 4.95379E-08
 6.24879E-08
-5.40196E-08
-4.27181E-08
-2.92279E-08
-8.22346E-09
 1.69808E-08
 3.97745E-08
 5.61901E-08
 6.97851E-08
 SCALARS dual12 float  1                           
LOOKUP_TABLE default
 0.00000E+00
 0.00000E+00
 0.00000E+00
 0.00000E+00
 0.00000E+00
 0.00000E+00
 0.00000E+00
 0.00000E+00
 0.00000E+00
 1.29829E-08
-5.93462E-09
-1.68412E-08
-2.81532E-08
-1.57275E-09
 1.38555E-08
 0.00000E+00
 0.00000E+00
 7.29516E-09
-3.91374E-09
-2.83278E-08
-3.39617E-08
-1.47587E-08
 9.59949E-09
 0.00000E+00
 0.00000E+00
 5.43319E-09
-4.19672E-10
-2.51388E-08
-3.08254E-08
-1.56855E-08
-1.04912E-08
 0.00000E+00
 0.00000E+00
 2.31370E-09
-2.05781E-10
-1.06094E-08
 5.95281E-09
 3.22636E-09
-1.01803E-09
 0.00000E+00
 0.00000E+00
 1.27802E-08
 1.98373E-08
 1.74938E-08
 3.69039E-08
 3.07044E-08
 1.09392E-08
 0.00000E+00
 0.00000E+00
 1.95516E-08
 3.95949E-08
 5.35891E-08
 5.89940E-08
 4.69357E-08
 2.63287E-08
 0.00000E+00
 0.00000E+00
 8.24340E-09
 4.39500E-08
 7.48610E-08
 8.01049E-08
 7.50375E-08
 5.21499E-08
 0.00000E+00
 0.00000E+00
 2.36132E-08
 6.20892E-08
 9.39745E-08
 1.02179E-07
 7.85135E-08
 4.60774E-08
 0.00000E+00
 0.00000E+00
 5.82186E-09
 3.43052E-08
 5.90390E-08
 6.40299E-08
 4.67152E-08
 1.95122E-08
 0.00000E+00
 0.00000E+00
 0.00000E+00
 0.00000E+00
 0.00000E+00
 0.00000E+00
 0.00000E+00
 0.00000E+00
 0.00000E+00
 SCALARS dual13 float  1                           
LOOKUP_TABLE default
-4.44590E-08
-5.41744E-08
-1.78205E-07
-3.26267E-07
-3.84190E-07
-2.63685E-07
-9.78948E-08
-4.98525E-08
-3.33479E-08
-6.86235E-08
-1.61617E-07
-2.62115E-07
-2.80204E-07
-2.04225E-07
-1.19303E-07
-9.42707E-08
-1.67579E-08
-2.46536E-08
-2.60906E-08
-4.14237E-08
-4.69986E-08
-7.32324E-08
-8.94703E-08
-8.48977E-08
 7.92681E-08
 1.01274E-07
 1.89555E-07
 3.00001E-07
 3.70394E-07
 2.72613E-07
 1.42918E-07
 1.09274E-07
 2.04976E-07
 2.85605E-07
 5.03221E-07
 7.55733E-07
 8.52849E-07
 6.95670E-07
 4.60831E-07
 3.34740E-07
 3.05281E-07
 4.22224E-07
 7.02513E-07
 9.80536E-07
 1.03013E-06
 8.57669E-07
 6.08479E-07
 4.65916E-07
 2.33020E-07
 3.22662E-07
 5.76492E-07
 8.34413E-07
 8.80929E-07
 7.82699E-07
 5.93841E-07
 4.62262E-07
 6.38300E-08
 1.36756E-07
 2.95831E-07
 4.38005E-07
 4.75148E-07
 3.94065E-07
 2.49834E-07
 1.84881E-07
-1.07195E-07
-1.33130E-07
-2.01024E-07
-2.49860E-07
-2.78745E-07
-2.83100E-07
-2.38177E-07
-1.73017E-07
-3.50555E-07
-4.54920E-07
-6.90587E-07
-8.88908E-07
-9.33487E-07
-8.01040E-07
-5.67287E-07
-4.12441E-07
-4.12376E-07
-5.76082E-07
-9.07612E-07
-1.15719E-06
-1.17123E-06
-9.47491E-07
-6.33162E-07
-4.77134E-07
 SCALARS NLP float  1                              
LOOKUP_TABLE default
 0.00000E+00
 0.00000E+00
 0.00000E+00
 0.00000E+00
 0.00000E+00
 0.00000E+00
 0.00000E+00
 0.00000E+00
 0.00000E+00
 0.00000E+00
 0.00000E+00
 0.00000E+00
 0.00000E+00
 0.00000E+00
 0.00000E+00
 0.00000E+00
 0.00000E+00
 0.00000E+00
 0.00000E+00
 0.00000E+00
 0.00000E+00
 0.00000E+00
 0.00000E+00
 0.00000E+00
 0.00000E+00
 0.00000E+00
 0.00000E+00
 0.00000E+00
 0.00000E+00
 0.00000E+00
 0.00000E+00
 0.00000E+00
 0.00000E+00
 0.00000E+00
 0.00000E+00
 0.00000E+00
 0.00000E+00
 0.00000E+00
 0.00000E+00
 0.00000E+00
 0.00000E+00
 0.00000E+00
 0.00000E+00
 0.00000E+00
 0.00000E+00
 0.00000E+00
 0.00000E+00
 0.00000E+00
 0.00000E+00
 0.00000E+00
 0.00000E+00
 0.00000E+00
 0.00000E+00
 0.00000E+00
 0.00000E+00
 0.00000E+00
 0.00000E+00
 0.00000E+00
 0.00000E+00
 0.00000E+00
 0.00000E+00
 0.00000E+00
 0.00000E+00
 0.00000E+00
 0.00000E+00
 0.00000E+00
 0.00000E+00
 0.00000E+00
 0.00000E+00
 0.00000E+00
 0.00000E+00
 0.00000E+00
 0.00000E+00
 0.00000E+00
 0.00000E+00
 0.00000E+00
 0.00000E+00
 0.00000E+00
 0.00000E+00
 0.00000E+00
 0.00000E+00
 0.00000E+00
 0.00000E+00
 0.00000E+00
 0.00000E+00
 0.00000E+00
 0.00000E+00
 0.00000E+00
 SCALARS SM float  1                               
LOOKUP_TABLE default
 1.00000E+00
 1.02185E+00
 1.01230E+00
 1.00000E+00
 1.00000E+00
 1.00000E+00
 1.00343E+00
 1.00250E+00
 1.00589E+00
 1.00180E+00
 1.02206E+00
 1.00000E+00
 1.00000E+00
 1.01651E+00
 1.00000E+00
 1.01759E+00
 1.02815E+00
 1.02839E+00
 1.07383E+00
 1.02438E+00
 1.01323E+00
 1.02648E+00
 1.02182E+00
 1.00029E+00
 1.13791E+00
 1.16798E+00
 1.22234E+00
 1.32686E+00
 1.41820E+00
 1.35140E+00
 1.24958E+00
 1.20430E+00
 1.24613E+00
 1.30791E+00
 1.46036E+00
 1.57297E+00
 1.61799E+00
 1.57077E+00
 1.43172E+00
 1.34608E+00
 1.30360E+00
 1.34874E+00
 1.52109E+00
 1.61778E+00
 1.64506E+00
 1.56389E+00
 1.46375E+00
 1.38212E+00
 1.27003E+00
 1.31412E+00
 1.44240E+00
 1.57774E+00
 1.56251E+00
 1.51363E+00
 1.46360E+00
 1.30449E+00
 1.14895E+00
 1.19595E+00
 1.32278E+00
 1.39812E+00
 1.40511E+00
 1.33340E+00
 1.15928E+00
 1.06130E+00
 1.01401E+00
 1.01957E+00
 1.00860E+00
 1.00000E+00
 1.00000E+00
 1.00000E+00
 1.00000E+00
 1.00000E+00
 1.00000E+00
 1.00000E+00
 1.00000E+00
 1.00000E+00
 1.00000E+00
 1.00000E+00
 1.00000E+00
 1.00000E+00
 1.00000E+00
 1.00000E+00
 1.00000E+00
 1.00000E+00
 1.00000E+00
 1.00000E+00
 1.00000E+00
 1.00000E+00
 SCALARS gradient1 float  1                        
LOOKUP_TABLE default
 0.00000E+00
 0.00000E+00
 0.00000E+00
 0.00000E+00
 0.00000E+00
 0.00000E+00
 0.00000E+00
 0.00000E+00
 0.00000E+00
 0.00000E+00
 0.00000E+00
 0.00000E+00
 0.00000E+00
 0.00000E+00
 0.00000E+00
 0.00000E+00
 0.00000E+00
 0.00000E+00
 0.00000E+00
 0.00000E+00
 0.00000E+00
 0.00000E+00
 0.00000E+00
 0.00000E+00
 0.00000E+00
 0.00000E+00
 0.00000E+00
 0.00000E+00
 0.00000E+00
 0.00000E+00
 0.00000E+00
 0.00000E+00
 0.00000E+00
 0.00000E+00
 0.00000E+00
 0.00000E+00
 0.00000E+00
 0.00000E+00
 0.00000E+00
 0.00000E+00
 0.00000E+00
 0.00000E+00
 0.00000E+00
 0.00000E+00
 0.00000E+00
 0.00000E+00
 0.00000E+00
 0.00000E+00
 0.00000E+00
 0.00000E+00
 0.00000E+00
 0.00000E+00
 0.00000E+00
 0.00000E+00
 0.00000E+00
 0.00000E+00
 0.00000E+00
 0.00000E+00
 0.00000E+00
 0.00000E+00
 0.00000E+00
 0.00000E+00
 0.00000E+00
 0.00000E+00
 0.00000E+00
 0.00000E+00
 0.00000E+00
 0.00000E+00
 0.00000E+00
 0.00000E+00
 0.00000E+00
 0.00000E+00
 0.00000E+00
 0.00000E+00
 0.00000E+00
 0.00000E+00
 0.00000E+00
 0.00000E+00
 0.00000E+00
 0.00000E+00
 0.00000E+00
 0.00000E+00
 0.00000E+00
 0.00000E+00
 0.00000E+00
 0.00000E+00
 0.00000E+00
 0.00000E+00
 SCALARS gradient2 float  1                        
LOOKUP_TABLE default
-1.54407E-12
 3.02798E-12
-1.02264E-12
 5.09486E-13
 2.76289E-12
-1.11713E-12
 1.26848E-12
-1.61554E-12
-9.31020E-13
-7.56798E-12
 3.75612E-12
-5.19802E-13
-5.66517E-13
 5.67712E-12
-8.18123E-12
 3.22849E-12
 4.38419E-15
-1.42497E-12
 2.20771E-12
-8.48213E-13
-2.46044E-12
 5.94078E-13
 1.42102E-12
-2.78107E-12
-8.50434E-13
-8.47596E-13
-8.03851E-13
-1.45901E-12
-1.70649E-12
-1.56101E-12
-9.36182E-13
-1.18927E-12
-1.54137E-12
-7.60661E-13
-1.05674E-12
-2.91868E-12
-1.76600E-12
-9.24678E-13
-1.64202E-12
-2.24831E-12
-1.22460E-12
-6.49862E-13
-7.98536E-13
-1.69041E-12
 2.56981E-12
-2.36134E-12
-2.06426E-12
-2.47696E-12
-1.64793E-12
-3.69178E-13
-2.20144E-12
-4.64540E-13
-2.24360E-12
-2.38449E-12
-1.53485E-12
-2.24805E-12
-6.71315E-13
-1.12506E-12
-8.68634E-13
-2.19847E-12
-2.34117E-12
-2.13572E-12
-9.70360E-13
-5.27197E-13
-9.11852E-13
 1.86117E-12
 2.15367E-12
-9.76236E-14
 1.63203E-12
 2.52365E-12
 2.61562E-12
 6.82888E-13
 4.99868E-13
 3.11012E-12
 6.26552E-12
 1.22302E-11
 1.37406E-11
 1.10282E-11
 7.49894E-12
 2.11161E-12
 1.20015E-12
 3.01350E-12
 5.94948E-12
 8.58551E-12
 8.25237E-12
 5.18726E-12
 3.06761E-12
 4.32965E-13
CELL_DATA         140
SCALARS elemDataMatch  float  1
LOOKUP_TABLE default
 0.00000E+00
 2.54316E-13
 2.54316E-13
 1.92474E-13
 8.63320E-14
 6.78499E-14
 8.32201E-15
 3.07048E-13
 3.52920E-13
 2.64710E-13
 8.56138E-14
 2.98085E-13
 1.13776E-13
 1.13776E-13
 2.54316E-13
 2.70861E-13
 1.99936E-13
 6.63193E-14
 5.94631E-14
 8.48787E-14
 6.00348E-13
 7.87004E-13
 3.07191E-13
 8.94183E-14
 2.00589E-13
 4.40632E-13
 6.10176E-13
 3.08923E-13
 9.55680E-16
 3.61200E-15
 1.09938E-14
 1.23784E-13
 1.05527E-13
 1.76769E-13
 3.36566E-13
 1.06277E-12
 1.10490E-12
 1.24846E-12
 2.16106E-13
 3.40191E-13
 3.00685E-13
 2.92216E-13
 1.47075E-15
 5.24791E-14
 7.90079E-14
 1.32918E-13
 1.32355E-13
 7.17018E-13
 1.74567E-12
 9.34440E-13
 6.26203E-13
 2.20093E-13
 8.25722E-13
 6.79177E-13
 3.43180E-13
 6.70386E-15
 6.04363E-14
 4.57251E-14
 1.54696E-13
 6.05262E-14
 3.53382E-13
 9.05641E-13
 7.45187E-13
 5.02404E-13
 4.68391E-13
 3.15548E-13
 1.33092E-13
 9.45922E-14
 6.16939E-14
 3.88514E-14
 1.06035E-14
 1.13817E-13
 2.26168E-13
 6.83075E-13
 3.98728E-13
 4.88298E-13
 4.24115E-13
 6.34737E-13
 5.83985E-13
 1.60322E-13
 9.46251E-14
 1.41000E-13
 9.89266E-14
 2.74301E-14
 7.50113E-14
 3.80594E-13
 4.26511E-13
 5.27537E-13
 4.69712E-13
 2.49587E-13
 4.66840E-13
 1.17553E-13
 1.31538E-14
 2.14376E-13
 1.87936E-13
 9.81686E-13
 4.23408E-13
 5.14811E-13
 4.99065E-13
 3.94940E-13
 5.26625E-13
 7.25804E-13
 4.85957E-13
 1.86802E-12
 7.83413E-13
 1.91471E-12
 1.47247E-12
 1.78778E-12
 1.38547E-12
 1.03849E-12
 8.44949E-13
 1.01523E-13
 2.46904E-13
 2.15917E-13
 6.60707E-13
 3.19120E-13
 1.44358E-12
 8.14309E-13
 2.45169E-12
 1.62980E-12
 1.48370E-12
 4.06885E-13
 3.57726E-13
 1.75581E-13
 7.61429E-14
 2.56928E-14
 1.79584E-13
 1.79584E-13
 1.66003E-13
 1.21972E-15
 7.20272E-14
 6.21041E-14
 2.85047E-13
 1.32299E-13
 2.82255E-13
 6.04944E-14
 4.67630E-14
 2.56928E-14
 2.56928E-14
 0.00000E+00
SCALARS elemRegul  float  1
LOOKUP_TABLE default
 2.82907E-14
 2.55864E-14
 2.77712E-14
 2.81135E-14
 1.96270E-14
 2.75737E-14
 3.12500E-16
 3.12500E-16
 3.12500E-16
 2.91890E-14
 2.10828E-14
 2.10828E-14
 4.46150E-15
 2.89645E-14
 2.82990E-14
 3.32432E-14
 4.17898E-14
 8.61113E-14
 7.03474E-14
 6.89175E-14
 3.04817E-14
 2.16322E-14
 2.64453E-14
 2.07281E-14
 2.41088E-14
 2.78870E-14
 3.50274E-14
 3.45177E-14
 1.37201E-13
 1.78492E-13
 1.83502E-13
 1.97687E-13
 1.95660E-13
 4.00028E-13
 3.78351E-13
 5.18929E-13
 5.06484E-13
 4.14649E-13
 4.06198E-13
 3.11862E-13
 2.85979E-13
 2.61223E-13
 1.40396E-13
 1.91209E-13
 1.87654E-13
 3.53306E-13
 3.24934E-13
 3.38318E-13
 3.28144E-13
 2.56010E-13
 2.63334E-13
 2.80492E-13
 3.02306E-13
 2.86434E-13
 2.34602E-13
 2.07044E-13
 1.05474E-13
 7.60763E-14
 1.97266E-13
 2.28431E-13
 1.59938E-13
 1.33208E-13
 7.94005E-14
 4.80386E-14
 6.80403E-14
 1.01834E-13
 1.74023E-13
 1.31420E-13
 1.14290E-13
 1.11534E-13
 7.03188E-14
 7.00735E-14
 2.19748E-13
 1.88119E-13
 1.55828E-13
 1.76420E-13
 6.05660E-14
 1.04933E-13
 1.44723E-13
 8.76294E-14
 1.40053E-13
 6.25341E-14
 1.02032E-13
 2.21303E-13
 1.61073E-13
 1.58967E-13
 2.18017E-13
 2.17927E-13
 2.25780E-13
 2.43471E-13
 2.25324E-13
 1.96938E-13
 2.06012E-13