# vtk DataFile Version 2.0
Output of NLACE
ASCII
DATASET UNSTRUCTURED_GRID
POINTS           88 FLOAT
 6.000000E-01  2.500000E-01  0.000000E+00
 6.500000E-01  2.500000E-01  0.000000E+00
 7.000000E-01  2.500000E-01  0.000000E+00
 7.500000E-01  2.500000E-01  0.000000E+00
 8.000000E-01  2.500000E-01  0.000000E+00
 8.500000E-01  2.500000E-01  0.000000E+00
 9.000000E-01  2.500000E-01  0.000000E+00
 9.500000E-01  2.500000E-01  0.000000E+00
 6.000000E-01  3.000000E-01  0.000000E+00
 6.500000E-01  3.000000E-01  0.000000E+00
 7.000000E-01  3.000000E-01  0.000000E+00
 7.500000E-01  3.000000E-01  0.000000E+00
 8.000000E-01  3.000000E-01  0.000000E+00
 8.500000E-01  3.000000E-01  0.000000E+00
 9.000000E-01  3.000000E-01  0.000000E+00
 9.500000E-01  3.000000E-01  0.000000E+00
 6.000000E-01  3.500000E-01  0.000000E+00
 6.500000E-01  3.500000E-01  0.000000E+00
 7.000000E-01  3.500000E-01  0.000000E+00
 7.500000E-01  3.500000E-01  0.000000E+00
 8.000000E-01  3.500000E-01  0.000000E+00
 8.500000E-01  3.500000E-01  0.000000E+00
 9.000000E-01  3.500000E-01  0.000000E+00
 9.500000E-01  3.500000E-01  0.000000E+00
 6.000000E-01  4.000000E-01  0.000000E+00
 6.500000E-01  4.000000E-01  0.000000E+00
 7.000000E-01  4.000000E-01  0.000000E+00
 7.500000E-01  4.000000E-01  0.000000E+00
 8.000000E-01  4.000000E-01  0.000000E+00
 8.500000E-01  4.000000E-01  0.000000E+00
 9.000000E-01  4.000000E-01  0.000000E+00
 9.500000E-01  4.000000E-01  0.000000E+00
 6.000000E-01  4.500000E-01  0.000000E+00
 6.500000E-01  4.500000E-01  0.000000E+00
 7.000000E-01  4.500000E-01  0.000000E+00
 7.500000E-01  4.500000E-01  0.000000E+00
 8.000000E-01  4.500000E-01  0.000000E+00
 8.500000E-01  4.500000E-01  0.000000E+00
 9.000000E-01  4.500000E-01  0.000000E+00
 9.500000E-01  4.500000E-01  0.000000E+00
 6.000000E-01  5.000000E-01  0.000000E+00
 6.500000E-01  5.000000E-01  0.000000E+00
 7.000000E-01  5.000000E-01  0.000000E+00
 7.500000E-01  5.000000E-01  0.000000E+00
 8.000000E-01  5.000000E-01  0.000000E+00
 8.500000E-01  5.000000E-01  0.000000E+00
 9.000000E-01  5.000000E-01  0.000000E+00
 9.500000E-01  5.000000E-01  0.000000E+00
 6.000000E-01  5.500000E-01  0.000000E+00
 6.500000E-01  5.500000E-01  0.000000E+00
 7.000000E-01  5.500000E-01  0.000000E+00
 7.500000E-01  5.500000E-01  0.000000E+00
 8.000000E-01  5.500000E-01  0.000000E+00
 8.500000E-01  5.500000E-01  0.000000E+00
 9.000000E-01  5.500000E-01  0.000000E+00
 9.500000E-01  5.500000E-01  0.000000E+00
 6.000000E-01  6.000000E-01  0.000000E+00
 6.500000E-01  6.000000E-01  0.000000E+00
 7.000000E-01  6.000000E-01  0.000000E+00
 7.500000E-01  6.000000E-01  0.000000E+00
 8.000000E-01  6.000000E-01  0.000000E+00
 8.500000E-01  6.000000E-01  0.000000E+00
 9.000000E-01  6.000000E-01  0.000000E+00
 9.500000E-01  6.000000E-01  0.000000E+00
 6.000000E-01  6.500000E-01  0.000000E+00
 6.500000E-01  6.500000E-01  0.000000E+00
 7.000000E-01  6.500000E-01  0.000000E+00
 7.500000E-01  6.500000E-01  0.000000E+00
 8.000000E-01  6.500000E-01  0.000000E+00
 8.500000E-01  6.500000E-01  0.000000E+00
 9.000000E-01  6.500000E-01  0.000000E+00
 9.500000E-01  6.500000E-01  0.000000E+00
 6.000000E-01  7.000000E-01  0.000000E+00
 6.500000E-01  7.000000E-01  0.000000E+00
 7.000000E-01  7.000000E-01  0.000000E+00
 7.500000E-01  7.000000E-01  0.000000E+00
 8.000000E-01  7.000000E-01  0.000000E+00
 8.500000E-01  7.000000E-01  0.000000E+00
 9.000000E-01  7.000000E-01  0.000000E+00
 9.500000E-01  7.000000E-01  0.000000E+00
 6.000000E-01  7.500000E-01  0.000000E+00
 6.500000E-01  7.500000E-01  0.000000E+00
 7.000000E-01  7.500000E-01  0.000000E+00
 7.500000E-01  7.500000E-01  0.000000E+00
 8.000000E-01  7.500000E-01  0.000000E+00
 8.500000E-01  7.500000E-01  0.000000E+00
 9.000000E-01  7.500000E-01  0.000000E+00
 9.500000E-01  7.500000E-01  0.000000E+00
CELLS          140         560
           3           0           1           8
           3           1           9           8
           3           1           2           9
           3           2          10           9
           3           2           3          10
           3           3          11          10
           3           3           4          11
           3           4          12          11
           3           4           5          12
           3           5          13          12
           3           5           6          13
           3           6          14          13
           3           6           7          14
           3           7          15          14
           3           8           9          16
           3           9          17          16
           3           9          10          17
           3          10          18          17
           3          10          11          18
           3          11          19          18
           3          11          12          19
           3          12          20          19
           3          12          13          20
           3          13          21          20
           3          13          14          21
           3          14          22          21
           3          14          15          22
           3          15          23          22
           3          16          17          24
           3          17          25          24
           3          17          18          25
           3          18          26          25
           3          18          19          26
           3          19          27          26
           3          19          20          27
           3          20          28          27
           3          20          21          28
           3          21          29          28
           3          21          22          29
           3          22          30          29
           3          22          23          30
           3          23          31          30
           3          24          25          32
           3          25          33          32
           3          25          26          33
           3          26          34          33
           3          26          27          34
           3          27          35          34
           3          27          28          35
           3          28          36          35
           3          28          29          36
           3          29          37          36
           3          29          30          37
           3          30          38          37
           3          30          31          38
           3          31          39          38
           3          32          33          40
           3          33          41          40
           3          33          34          41
           3          34          42          41
           3          34          35          42
           3          35          43          42
           3          35          36          43
           3          36          44          43
           3          36          37          44
           3          37          45          44
           3          37          38          45
           3          38          46          45
           3          38          39          46
           3          39          47          46
           3          40          41          48
           3          41          49          48
           3          41          42          49
           3          42          50          49
           3          42          43          50
           3          43          51          50
           3          43          44          51
           3          44          52          51
           3          44          45          52
           3          45          53          52
           3          45          46          53
           3          46          54          53
           3          46          47          54
           3          47          55          54
           3          48          49          56
           3          49          57          56
           3          49          50          57
           3          50          58          57
           3          50          51          58
           3          51          59          58
           3          51          52          59
           3          52          60          59
           3          52          53          60
           3          53          61          60
           3          53          54          61
           3          54          62          61
           3          54          55          62
           3          55          63          62
           3          56          57          64
           3          57          65          64
           3          57          58          65
           3          58          66          65
           3          58          59          66
           3          59          67          66
           3          59          60          67
           3          60          68          67
           3          60          61          68
           3          61          69          68
           3          61          62          69
           3          62          70          69
           3          62          63          70
           3          63          71          70
           3          64          65          72
           3          65          73          72
           3          65          66          73
           3          66          74          73
           3          66          67          74
           3          67          75          74
           3          67          68          75
           3          68          76          75
           3          68          69          76
           3          69          77          76
           3          69          70          77
           3          70          78          77
           3          70          71          78
           3          71          79          78
           3          72          73          80
           3          73          81          80
           3          73          74          81
           3          74          82          81
           3          74          75          82
           3          75          83          82
           3          75          76          83
           3          76          84          83
           3          76          77          84
           3          77          85          84
           3          77          78          85
           3          78          86          85
           3          78          79          86
           3          79          87          86
CELL_TYPES          140
5
5
5
5
5
5
5
5
5
5
5
5
5
5
5
5
5
5
5
5
5
5
5
5
5
5
5
5
5
5
5
5
5
5
5
5
5
5
5
5
5
5
5
5
5
5
5
5
5
5
5
5
5
5
5
5
5
5
5
5
5
5
5
5
5
5
5
5
5
5
5
5
5
5
5
5
5
5
5
5
5
5
5
5
5
5
5
5
5
5
5
5
5
5
5
5
5
5
5
5
5
5
5
5
5
5
5
5
5
5
5
5
5
5
5
5
5
5
5
5
5
5
5
5
5
5
5
5
5
5
5
5
5
5
5
5
5
5
5
5
POINT_DATA           88
 SCALARS measuredDisp11 float  1                   
LOOKUP_TABLE default
 1.60000E-04
 2.36000E-04
 3.78000E-04
 5.10000E-04
 5.99000E-04
 7.16000E-04
 8.28000E-04
 9.85000E-04
 1.80000E-04
 2.39000E-04
 4.14000E-04
 4.16000E-04
 5.88000E-04
 7.34000E-04
 8.06000E-04
 9.81000E-04
 1.76000E-04
 3.33000E-04
 3.51000E-04
 3.74000E-04
 5.56000E-04
 6.67000E-04
 7.67000E-04
 8.85000E-04
 2.18000E-04
 3.55000E-04
 4.39000E-04
 5.02000E-04
 5.04000E-04
 5.75000E-04
 6.77000E-04
 7.85000E-04
 2.65000E-04
 4.09000E-04
 5.20000E-04
 5.11000E-04
 5.49000E-04
 5.82000E-04
 5.87000E-04
 8.10000E-04
 2.37000E-04
 3.57000E-04
 5.39000E-04
 4.27000E-04
 5.30000E-04
 6.13000E-04
 6.18000E-04
 6.40000E-04
 2.28000E-04
 3.42000E-04
 5.19000E-04
 4.62000E-04
 5.10000E-04
 6.02000E-04
 5.97000E-04
 8.01000E-04
 1.86000E-04
 3.10000E-04
 4.09000E-04
 5.36000E-04
 5.25000E-04
 5.93000E-04
 6.97000E-04
 7.79000E-04
 1.95000E-04
 2.72000E-04
 3.78000E-04
 4.81000E-04
 5.57000E-04
 6.59000E-04
 8.34000E-04
 8.67000E-04
 1.60000E-04
 2.57000E-04
 4.53000E-04
 4.60000E-04
 5.96000E-04
 7.29000E-04
 8.04000E-04
 9.40000E-04
 1.89000E-04
 2.52000E-04
 3.96000E-04
 4.41000E-04
 5.92000E-04
 7.39000E-04
 9.06000E-04
 9.78000E-04
 SCALARS measuredDisp12 float  1                   
LOOKUP_TABLE default
 1.52300E-03
 1.49400E-03
 1.47800E-03
 1.37500E-03
 1.37100E-03
 1.43200E-03
 1.39700E-03
 1.51600E-03
 1.38600E-03
 1.43000E-03
 1.32100E-03
 1.30900E-03
 1.23200E-03
 1.34200E-03
 1.36900E-03
 1.42900E-03
 1.33200E-03
 1.28300E-03
 1.24700E-03
 1.17400E-03
 1.18700E-03
 1.18400E-03
 1.29500E-03
 1.29500E-03
 1.24200E-03
 1.18800E-03
 1.17600E-03
 1.10000E-03
 1.03800E-03
 1.10900E-03
 1.10200E-03
 1.21700E-03
 1.17100E-03
 1.07600E-03
 1.04500E-03
 1.00900E-03
 1.10900E-03
 1.02900E-03
 1.06300E-03
 1.06500E-03
 1.01900E-03
 1.01900E-03
 1.02100E-03
 9.31000E-04
 1.04200E-03
 1.03900E-03
 9.84000E-04
 9.95000E-04
 8.93000E-04
 9.46000E-04
 9.82000E-04
 9.78000E-04
 9.54000E-04
 9.32000E-04
 9.23000E-04
 9.56000E-04
 7.84000E-04
 7.58000E-04
 8.28000E-04
 9.00000E-04
 8.74000E-04
 9.25000E-04
 9.24000E-04
 8.07000E-04
 6.60000E-04
 7.70000E-04
 8.23000E-04
 8.59000E-04
 8.85000E-04
 8.07000E-04
 7.87000E-04
 7.12000E-04
 6.24000E-04
 5.67000E-04
 6.54000E-04
 7.09000E-04
 7.34000E-04
 7.27000E-04
 6.30000E-04
 5.98000E-04
 5.12000E-04
 4.59000E-04
 5.47000E-04
 5.89000E-04
 5.95000E-04
 6.48000E-04
 5.20000E-04
 5.02000E-04
 SCALARS measuredDisp13 float  1                   
LOOKUP_TABLE default
 4.29600E-03
 4.18100E-03
 3.88600E-03
 3.35800E-03
 2.89100E-03
 2.65600E-03
 2.88000E-03
 3.45500E-03
 3.90000E-03
 4.22100E-03
 4.36400E-03
 4.57000E-03
 4.40600E-03
 4.19500E-03
 3.50900E-03
 2.40800E-03
 1.94000E-03
 2.46100E-03
 3.62000E-03
 4.16300E-03
 4.47600E-03
 4.46600E-03
 4.78600E-03
 4.80500E-03
 4.93700E-03
 4.25500E-03
 2.31600E-03
 1.88700E-03
 2.38500E-03
 4.28500E-03
 4.91200E-03
 4.83700E-03
 4.72200E-03
 4.96400E-03
 5.38100E-03
 6.06900E-03
 6.07100E-03
 4.27400E-03
 4.92200E-03
 4.25300E-03
 6.04200E-03
 5.92800E-03
 5.38200E-03
 4.95300E-03
 5.07000E-03
 5.52600E-03
 6.50000E-03
 6.48300E-03
 4.17200E-03
 4.60700E-03
 4.15100E-03
 6.49300E-03
 6.53600E-03
 5.54200E-03
 4.97000E-03
 4.91300E-03
 5.20500E-03
 5.77700E-03
 5.89600E-03
 4.72800E-03
 5.21500E-03
 4.68700E-03
 5.95300E-03
 5.91800E-03
 5.28800E-03
 4.83100E-03
 4.44600E-03
 4.59100E-03
 4.75900E-03
 4.39000E-03
 3.38200E-03
 3.30100E-03
 3.37800E-03
 4.42100E-03
 4.84600E-03
 4.59600E-03
 4.50300E-03
 4.02500E-03
 4.02900E-03
 4.05400E-03
 3.98400E-03
 3.87100E-03
 3.62800E-03
 3.77000E-03
 3.99600E-03
 4.05500E-03
 4.02200E-03
 4.00000E-03
 SCALARS predictedDisp11 float  1                  
LOOKUP_TABLE default
 2.14624E-04
 3.00292E-04
 3.78000E-04
 4.81735E-04
 6.04955E-04
 7.00266E-04
 8.11830E-04
 9.11013E-04
 2.28014E-04
 3.17560E-04
 4.11596E-04
 5.03155E-04
 5.94778E-04
 6.85625E-04
 7.71253E-04
 8.47928E-04
 2.29134E-04
 3.27097E-04
 4.22601E-04
 5.10484E-04
 5.93678E-04
 6.75959E-04
 7.55917E-04
 8.37225E-04
 2.39980E-04
 3.36743E-04
 4.30545E-04
 5.16454E-04
 5.96943E-04
 6.76115E-04
 7.55705E-04
 8.35045E-04
 2.53986E-04
 3.50355E-04
 4.40252E-04
 5.23763E-04
 6.03217E-04
 6.82239E-04
 7.63704E-04
 8.50461E-04
 2.67457E-04
 3.58206E-04
 4.46147E-04
 5.29137E-04
 6.09210E-04
 6.90395E-04
 7.77252E-04
 8.73940E-04
 2.58031E-04
 3.54032E-04
 4.44778E-04
 5.29435E-04
 6.10104E-04
 6.90529E-04
 7.73963E-04
 8.59272E-04
 2.47566E-04
 3.44614E-04
 4.38437E-04
 5.25738E-04
 6.07291E-04
 6.86410E-04
 7.66341E-04
 8.51450E-04
 2.26172E-04
 3.27700E-04
 4.28272E-04
 5.19975E-04
 6.04875E-04
 6.87330E-04
 7.70306E-04
 8.58299E-04
 2.10629E-04
 3.16822E-04
 4.16791E-04
 5.11252E-04
 6.02238E-04
 6.94309E-04
 7.83733E-04
 8.74431E-04
 2.31309E-04
 3.11339E-04
 3.85263E-04
 4.90905E-04
 5.92841E-04
 7.10462E-04
 8.26893E-04
 9.04878E-04
 SCALARS predictedDisp12 float  1                  
LOOKUP_TABLE default
 1.52300E-03
 1.49400E-03
 1.47800E-03
 1.37500E-03
 1.37100E-03
 1.43200E-03
 1.39700E-03
 1.51600E-03
 1.38600E-03
 1.38953E-03
 1.36441E-03
 1.31675E-03
 1.30758E-03
 1.32904E-03
 1.34634E-03
 1.42900E-03
 1.33200E-03
 1.29822E-03
 1.26882E-03
 1.24055E-03
 1.23232E-03
 1.24298E-03
 1.26248E-03
 1.29500E-03
 1.24200E-03
 1.20519E-03
 1.17830E-03
 1.16012E-03
 1.15487E-03
 1.16192E-03
 1.17857E-03
 1.21700E-03
 1.17100E-03
 1.11407E-03
 1.09058E-03
 1.07928E-03
 1.07659E-03
 1.08007E-03
 1.08339E-03
 1.06500E-03
 1.01900E-03
 1.00932E-03
 1.00153E-03
 9.97944E-04
 9.97845E-04
 9.99852E-04
 1.00128E-03
 9.95000E-04
 8.93000E-04
 9.05668E-04
 9.11452E-04
 9.15505E-04
 9.17974E-04
 9.18675E-04
 9.21866E-04
 9.56000E-04
 7.84000E-04
 8.04120E-04
 8.20307E-04
 8.32265E-04
 8.38133E-04
 8.36435E-04
 8.25479E-04
 8.07000E-04
 6.60000E-04
 6.98529E-04
 7.26436E-04
 7.48307E-04
 7.59221E-04
 7.58338E-04
 7.34603E-04
 7.12000E-04
 6.24000E-04
 5.97729E-04
 6.34086E-04
 6.65897E-04
 6.79943E-04
 6.87213E-04
 6.35928E-04
 5.98000E-04
 5.12000E-04
 4.59000E-04
 5.47000E-04
 5.89000E-04
 5.95000E-04
 6.48000E-04
 5.20000E-04
 5.02000E-04
 SCALARS predictedDisp13 float  1                  
LOOKUP_TABLE default
 4.11223E-03
 3.97282E-03
 3.57445E-03
 2.95108E-03
 2.73270E-03
 2.91485E-03
 2.93651E-03
 3.04953E-03
 3.89121E-03
 3.77501E-03
 3.48875E-03
 3.05733E-03
 2.96903E-03
 3.09137E-03
 3.21174E-03
 3.42778E-03
 3.68273E-03
 3.68576E-03
 3.55241E-03
 3.34175E-03
 3.29655E-03
 3.41600E-03
 3.60568E-03
 3.74209E-03
 3.81517E-03
 3.81003E-03
 3.72660E-03
 3.60084E-03
 3.56382E-03
 3.64636E-03
 3.79921E-03
 3.94772E-03
 4.21570E-03
 4.15929E-03
 3.97163E-03
 3.81020E-03
 3.73660E-03
 3.76409E-03
 3.86371E-03
 3.88803E-03
 4.55138E-03
 4.37572E-03
 4.12315E-03
 3.92161E-03
 3.80262E-03
 3.75038E-03
 3.70593E-03
 3.63618E-03
 4.49981E-03
 4.35579E-03
 4.12619E-03
 3.92675E-03
 3.80767E-03
 3.77209E-03
 3.79028E-03
 3.87357E-03
 4.33972E-03
 4.23910E-03
 4.03033E-03
 3.83402E-03
 3.73082E-03
 3.76412E-03
 3.95117E-03
 4.07250E-03
 4.06501E-03
 4.03252E-03
 3.87898E-03
 3.65274E-03
 3.52595E-03
 3.55876E-03
 3.81375E-03
 3.97379E-03
 4.09177E-03
 4.15693E-03
 3.84712E-03
 3.45762E-03
 3.25722E-03
 3.24951E-03
 3.66713E-03
 3.90319E-03
 4.43943E-03
 4.33324E-03
 3.80187E-03
 3.33847E-03
 3.05244E-03
 3.07084E-03
 3.63560E-03
 3.83341E-03
 SCALARS dual11 float  1                           
LOOKUP_TABLE default
-2.02253E-08
-9.05790E-09
 0.00000E+00
 1.71795E-08
 4.00913E-08
 6.33583E-08
 7.92832E-08
 9.53186E-08
-1.00884E-08
-8.49866E-10
 8.96953E-09
 2.24813E-08
 4.08585E-08
 5.56263E-08
 6.64877E-08
 7.98464E-08
 2.27356E-08
 2.70240E-08
 2.97203E-08
 3.30662E-08
 3.54553E-08
 3.60027E-08
 3.57587E-08
 4.01877E-08
 6.92539E-08
 6.31324E-08
 5.59953E-08
 4.52238E-08
 2.93949E-08
 1.03300E-08
-2.79769E-09
-1.48495E-08
 1.10265E-07
 9.42979E-08
 7.77382E-08
 5.36762E-08
 2.12179E-08
-9.37153E-09
-3.48709E-08
-5.86743E-08
 1.26699E-07
 1.04796E-07
 8.31711E-08
 5.34444E-08
 1.71915E-08
-1.54564E-08
-4.26482E-08
-7.08197E-08
 1.04841E-07
 8.69830E-08
 7.00601E-08
 4.58341E-08
 2.02248E-08
-2.37908E-09
-2.26766E-08
-4.41199E-08
 5.14361E-08
 4.68081E-08
 4.07552E-08
 3.33095E-08
 2.78006E-08
 2.32001E-08
 2.11864E-08
 1.93629E-08
-1.44075E-08
-6.18351E-09
 3.80905E-09
 1.87004E-08
 3.71710E-08
 5.78362E-08
 7.71494E-08
 9.43755E-08
-7.46834E-08
-5.03987E-08
-2.56149E-08
 8.53205E-09
 4.90250E-08
 8.83368E-08
 1.21142E-07
 1.49474E-07
-1.00675E-07
-6.92695E-08
-3.62403E-08
 7.37823E-09
 5.66262E-08
 1.01704E-07
 1.35846E-07
 1.65170E-07
 SCALARS dual12 float  1                           
LOOKUP_TABLE default
 0.00000E+00
 0.00000E+00
 0.00000E+00
 0.00000E+00
 0.00000E+00
 0.00000E+00
 0.00000E+00
 0.00000E+00
 0.00000E+00
-5.86446E-09
-3.98572E-08
-5.94578E-08
-7.16418E-08
-3.87231E-08
-8.11111E-09
 0.00000E+00
 0.00000E+00
-2.47252E-08
-6.18946E-08
-1.01811E-07
-1.09659E-07
-7.74467E-08
-2.63328E-08
 0.00000E+00
 0.00000E+00
-2.86974E-08
-6.12745E-08
-1.04202E-07
-1.11734E-07
-8.02726E-08
-4.80838E-08
 0.00000E+00
 0.00000E+00
-2.04920E-08
-3.93785E-08
-5.99338E-08
-3.38313E-08
-3.01909E-08
-2.06781E-08
 0.00000E+00
 0.00000E+00
 1.48866E-08
 2.61268E-08
 2.51433E-08
 5.69758E-08
 4.83996E-08
 1.91596E-08
 0.00000E+00
 0.00000E+00
 4.65418E-08
 9.13204E-08
 1.21421E-07
 1.31704E-07
 1.07684E-07
 6.22212E-08
 0.00000E+00
 0.00000E+00
 4.75778E-08
 1.19242E-07
 1.73717E-07
 1.82135E-07
 1.62680E-07
 1.03777E-07
 0.00000E+00
 0.00000E+00
 6.35831E-08
 1.34349E-07
 1.84382E-07
 1.93923E-07
 1.54317E-07
 8.89260E-08
 0.00000E+00
 0.00000E+00
 2.98564E-08
 7.61938E-08
 1.10308E-07
 1.15603E-07
 8.91552E-08
 4.33301E-08
 0.00000E+00
 0.00000E+00
 0.00000E+00
 0.00000E+00
 0.00000E+00
 0.00000E+00
 0.00000E+00
 0.00000E+00
 0.00000E+00
 SCALARS dual13 float  1                           
LOOKUP_TABLE default
-4.99236E-07
-6.55590E-07
-1.06265E-06
-1.42019E-06
-1.52218E-06
-1.25977E-06
-8.37082E-07
-6.14333E-07
-4.21897E-07
-5.92693E-07
-9.13938E-07
-1.17853E-06
-1.21909E-06
-1.00665E-06
-6.94895E-07
-5.41709E-07
-1.70513E-07
-2.47920E-07
-3.47513E-07
-4.33934E-07
-4.37628E-07
-3.85681E-07
-2.99960E-07
-2.56017E-07
 2.41319E-07
 2.93225E-07
 4.52529E-07
 6.05487E-07
 6.95929E-07
 5.89440E-07
 3.95152E-07
 2.90230E-07
 6.32123E-07
 8.33810E-07
 1.25158E-06
 1.60596E-06
 1.70488E-06
 1.45691E-06
 1.03531E-06
 7.67997E-07
 8.28365E-07
 1.10596E-06
 1.62006E-06
 2.00762E-06
 2.03912E-06
 1.73459E-06
 1.25747E-06
 9.65086E-07
 6.42725E-07
 8.68834E-07
 1.29325E-06
 1.60751E-06
 1.61504E-06
 1.40421E-06
 1.04893E-06
 8.22298E-07
 1.88010E-07
 3.11960E-07
 4.96081E-07
 6.14373E-07
 6.12099E-07
 5.01593E-07
 3.25204E-07
 2.52130E-07
-3.31800E-07
-4.17306E-07
-6.31894E-07
-8.00486E-07
-8.62606E-07
-8.03057E-07
-6.24615E-07
-4.55665E-07
-8.78736E-07
-1.13846E-06
-1.65833E-06
-2.04798E-06
-2.10240E-06
-1.79469E-06
-1.27818E-06
-9.47666E-07
-1.06883E-06
-1.44025E-06
-2.08971E-06
-2.53573E-06
-2.53245E-06
-2.07828E-06
-1.41969E-06
-1.08038E-06
 SCALARS NLP float  1                              
LOOKUP_TABLE default
 0.00000E+00
 0.00000E+00
 0.00000E+00
 0.00000E+00
 0.00000E+00
 0.00000E+00
 0.00000E+00
 0.00000E+00
 0.00000E+00
 0.00000E+00
 0.00000E+00
 0.00000E+00
 0.00000E+00
 0.00000E+00
 0.00000E+00
 0.00000E+00
 0.00000E+00
 0.00000E+00
 0.00000E+00
 0.00000E+00
 0.00000E+00
 0.00000E+00
 0.00000E+00
 0.00000E+00
 0.00000E+00
 0.00000E+00
 0.00000E+00
 0.00000E+00
 0.00000E+00
 0.00000E+00
 0.00000E+00
 0.00000E+00
 0.00000E+00
 0.00000E+00
 0.00000E+00
 0.00000E+00
 0.00000E+00
 0.00000E+00
 0.00000E+00
 0.00000E+00
 0.00000E+00
 0.00000E+00
 0.00000E+00
 0.00000E+00
 0.00000E+00
 0.00000E+00
 0.00000E+00
 0.00000E+00
 0.00000E+00
 0.00000E+00
 0.00000E+00
 0.00000E+00
 0.00000E+00
 0.00000E+00
 0.00000E+00
 0.00000E+00
 0.00000E+00
 0.00000E+00
 0.00000E+00
 0.00000E+00
 0.00000E+00
 0.00000E+00
 0.00000E+00
 0.00000E+00
 0.00000E+00
 0.00000E+00
 0.00000E+00
 0.00000E+00
 0.00000E+00
 0.00000E+00
 0.00000E+00
 0.00000E+00
 0.00000E+00
 0.00000E+00
 0.00000E+00
 0.00000E+00
 0.00000E+00
 0.00000E+00
 0.00000E+00
 0.00000E+00
 0.00000E+00
 0.00000E+00
 0.00000E+00
 0.00000E+00
 0.00000E+00
 0.00000E+00
 0.00000E+00
 0.00000E+00
 SCALARS SM float  1                               
LOOKUP_TABLE default
 1.05000E+00
 1.05000E+00
 1.05000E+00
 1.05000E+00
 1.05000E+00
 1.05000E+00
 1.05000E+00
 1.05000E+00
 1.05000E+00
 1.05000E+00
 1.05000E+00
 1.05000E+00
 1.05000E+00
 1.05000E+00
 1.05000E+00
 1.05000E+00
 1.05000E+00
 1.05000E+00
 1.05000E+00
 1.05000E+00
 1.05000E+00
 1.05000E+00
 1.05000E+00
 1.05000E+00
 1.05000E+00
 1.05000E+00
 1.05000E+00
 1.05000E+00
 1.05000E+00
 1.05000E+00
 1.05000E+00
 1.05000E+00
 1.05000E+00
 1.05000E+00
 1.05000E+00
 1.05000E+00
 1.05000E+00
 1.05000E+00
 1.05000E+00
 1.05000E+00
 1.05000E+00
 1.05000E+00
 1.05000E+00
 1.05000E+00
 1.05000E+00
 1.05000E+00
 1.05000E+00
 1.05000E+00
 1.05000E+00
 1.05000E+00
 1.05000E+00
 1.05000E+00
 1.05000E+00
 1.05000E+00
 1.05000E+00
 1.05000E+00
 1.05000E+00
 1.05000E+00
 1.05000E+00
 1.05000E+00
 1.05000E+00
 1.05000E+00
 1.05000E+00
 1.05000E+00
 1.05000E+00
 1.05000E+00
 1.05000E+00
 1.05000E+00
 1.05000E+00
 1.05000E+00
 1.05000E+00
 1.05000E+00
 1.05000E+00
 1.05000E+00
 1.05000E+00
 1.05000E+00
 1.05000E+00
 1.05000E+00
 1.05000E+00
 1.05000E+00
 1.05000E+00
 1.05000E+00
 1.05000E+00
 1.05000E+00
 1.05000E+00
 1.05000E+00
 1.05000E+00
 1.05000E+00
 SCALARS gradient1 float  1                        
LOOKUP_TABLE default
 0.00000E+00
 0.00000E+00
 0.00000E+00
 0.00000E+00
 0.00000E+00
 0.00000E+00
 0.00000E+00
 0.00000E+00
 0.00000E+00
 0.00000E+00
 0.00000E+00
 0.00000E+00
 0.00000E+00
 0.00000E+00
 0.00000E+00
 0.00000E+00
 0.00000E+00
 0.00000E+00
 0.00000E+00
 0.00000E+00
 0.00000E+00
 0.00000E+00
 0.00000E+00
 0.00000E+00
 0.00000E+00
 0.00000E+00
 0.00000E+00
 0.00000E+00
 0.00000E+00
 0.00000E+00
 0.00000E+00
 0.00000E+00
 0.00000E+00
 0.00000E+00
 0.00000E+00
 0.00000E+00
 0.00000E+00
 0.00000E+00
 0.00000E+00
 0.00000E+00
 0.00000E+00
 0.00000E+00
 0.00000E+00
 0.00000E+00
 0.00000E+00
 0.00000E+00
 0.00000E+00
 0.00000E+00
 0.00000E+00
 0.00000E+00
 0.00000E+00
 0.00000E+00
 0.00000E+00
 0.00000E+00
 0.00000E+00
 0.00000E+00
 0.00000E+00
 0.00000E+00
 0.00000E+00
 0.00000E+00
 0.00000E+00
 0.00000E+00
 0.00000E+00
 0.00000E+00
 0.00000E+00
 0.00000E+00
 0.00000E+00
 0.00000E+00
 0.00000E+00
 0.00000E+00
 0.00000E+00
 0.00000E+00
 0.00000E+00
 0.00000E+00
 0.00000E+00
 0.00000E+00
 0.00000E+00
 0.00000E+00
 0.00000E+00
 0.00000E+00
 0.00000E+00
 0.00000E+00
 0.00000E+00
 0.00000E+00
 0.00000E+00
 0.00000E+00
 0.00000E+00
 0.00000E+00
 SCALARS gradient2 float  1                        
LOOKUP_TABLE default
 3.54024E-13
 1.23870E-12
 3.98002E-12
 6.00037E-12
 6.99456E-12
 6.12230E-12
 2.75808E-12
 7.41781E-13
 1.11706E-12
 4.44815E-12
 8.07951E-12
 1.02406E-11
 1.03880E-11
 7.88031E-12
 3.39040E-12
 8.92341E-13
 1.02885E-12
 2.50904E-12
 3.09110E-12
 3.63958E-12
 3.00498E-12
 2.39252E-12
 1.88162E-12
 2.70743E-13
-3.81971E-13
-1.93662E-12
-3.17791E-12
-5.31369E-12
-8.16864E-12
-6.72676E-12
-3.93961E-12
-2.27840E-12
-1.78936E-12
-6.79190E-12
-1.08943E-11
-1.54327E-11
-1.74364E-11
-1.45176E-11
-1.00185E-11
-3.51889E-12
-3.20246E-12
-1.00796E-11
-1.50361E-11
-1.92482E-11
-1.87226E-11
-1.52930E-11
-1.08622E-11
-3.57417E-12
-2.92801E-12
-7.03253E-12
-1.15178E-11
-1.49422E-11
-1.34419E-11
-1.20110E-11
-9.62028E-12
-2.38663E-12
-1.01646E-12
-3.02931E-12
-5.83856E-12
-6.51089E-12
-6.10295E-12
-4.65450E-12
-1.48009E-12
 1.13406E-12
-2.69261E-13
 2.71386E-12
 5.70945E-12
 7.51340E-12
 8.51818E-12
 9.10675E-12
 8.38723E-12
 3.35624E-12
 3.26529E-12
 1.19464E-11
 1.62780E-11
 2.07058E-11
 2.21945E-11
 1.76791E-11
 1.28304E-11
 4.10170E-12
 3.32181E-12
 7.43511E-12
 1.04603E-11
 1.36457E-11
 1.29991E-11
 8.64330E-12
 5.90968E-12
 8.23750E-13
CELL_DATA         140
SCALARS elemDataMatch  float  1
LOOKUP_TABLE default
 0.00000E+00
 1.70585E-13
 1.70585E-13
 1.83898E-13
 1.96309E-13
 2.37606E-13
 6.25514E-15
 6.62291E-13
 5.95028E-13
 5.10473E-13
 1.75056E-14
 1.01599E-13
 5.34925E-14
 5.34925E-14
 1.70585E-13
 1.30555E-13
 2.12704E-13
 4.72138E-13
 4.03478E-13
 7.39823E-13
 1.70135E-12
 2.46522E-12
 1.01997E-12
 7.31311E-13
 2.45062E-13
 2.63737E-13
 2.40416E-13
 1.10160E-13
 2.41369E-14
 8.21984E-14
 2.05468E-13
 1.29351E-13
 6.83923E-13
 1.28559E-12
 2.06663E-12
 3.58079E-12
 3.54719E-12
 3.76436E-12
 7.10310E-13
 9.96119E-13
 4.61515E-13
 6.10737E-13
 3.07971E-14
 2.49944E-13
 2.63713E-13
 5.68665E-13
 9.04236E-13
 2.16682E-12
 4.34173E-12
 2.27067E-12
 1.89513E-12
 6.03381E-13
 2.28528E-12
 1.60427E-12
 8.16689E-13
 4.33116E-14
 1.50962E-13
 1.22335E-13
 4.73518E-13
 1.46880E-13
 8.69187E-13
 1.23270E-12
 1.11764E-12
 3.94463E-13
 3.25931E-13
 3.71328E-13
 2.91735E-13
 1.17138E-13
 1.11095E-13
 3.10890E-14
 9.76181E-15
 2.19879E-13
 3.60757E-13
 1.24857E-12
 5.40083E-13
 9.23609E-13
 6.20486E-13
 1.43279E-12
 9.90602E-13
 5.64596E-13
 1.69141E-13
 2.52726E-14
 2.91818E-14
 1.34024E-16
 1.69446E-13
 1.97250E-13
 6.73159E-13
 4.26824E-13
 1.49733E-12
 1.43623E-12
 1.94962E-12
 1.38897E-12
 5.22083E-13
 1.47317E-12
 9.70662E-13
 2.75929E-12
 1.02285E-12
 1.01108E-12
 2.21565E-13
 4.10308E-13
 4.36790E-13
 2.36315E-12
 2.26838E-12
 5.30132E-12
 3.33589E-12
 5.39208E-12
 4.56022E-12
 4.95857E-12
 3.93204E-12
 2.84645E-12
 1.83479E-12
 2.85983E-13
 5.32102E-13
 4.01688E-13
 1.78282E-12
 9.38454E-13
 3.83231E-12
 2.32721E-12
 5.62987E-12
 3.66158E-12
 3.81884E-12
 1.41567E-12
 1.38197E-12
 6.14768E-13
 2.57286E-13
 3.66107E-15
 9.83588E-14
 9.83588E-14
 7.59254E-14
 4.13093E-14
 3.24254E-13
 1.93532E-13
 7.40630E-13
 3.04387E-13
 6.93317E-13
 1.64895E-13
 1.43986E-13
 3.66107E-15
 3.66107E-15
 0.00000E+00
SCALARS elemRegul  float  1
LOOKUP_TABLE default
 3.12500E-16
 3.12500E-16
 3.12500E-16
 3.12500E-16
 3.12500E-16
 3.12500E-16
 3.12500E-16
 3.12500E-16
 3.12500E-16
 3.12500E-16
 3.12500E-16
 3.12500E-16
 3.12500E-16
 3.12500E-16
 3.12500E-16
 3.12500E-16
 3.12500E-16
 3.12500E-16
 3.12500E-16
 3.12500E-16
 3.12500E-16
 3.12500E-16
 3.12500E-16
 3.12500E-16
 3.12500E-16
 3.12500E-16
 3.12500E-16
 3.12500E-16
 3.12500E-16
 3.12500E-16
 3.12500E-16
 3.12500E-16
 3.12500E-16
 3.12500E-16
 3.12500E-16
 3.12500E-16
 3.12500E-16
 3.12500E-16
 3.12500E-16
 3.12500E-16
 3.12500E-16
 3.12500E-16
 3.12500E-16
 3.12500E-16
 3.12500E-16
 3.12500E-16
 3.12500E-16
 3.12500E-16
 3.12500E-16
 3.12500E-16
 3.12500E-16
 3.12500E-16
 3.12500E-16
 3.12500E-16
 3.12500E-16
 3.12500E-16
 3.12500E-16
 3.12500E-16
 3.12500E-16
 3.12500E-16
 3.12500E-16
 3.12500E-16
 3.12500E-16
 3.12500E-16
 3.12500E-16
 3.12500E-16
 3.12500E-16
 3.12500E-16
 3.12500E-16
 3.12500E-16
 3.12500E-16
 3.12500E-16
 3.12500E-16
 3.12500E-16
 3.12500E-16
 3.12500E-16
 3.12500E-16
 3.12500E-16
 3.12500E-16
 3.12500E-16
 3.12500E-16
 3.12500E-16
 3.12500E-16
 3.12500E-16
 3.12500E-16
 3.12500E-16
 3.12500E-16
 3.12500E-16
 3.12500E-16
 3.12500E-16
 3.12500E-16
 3.12500E-16
 3.12500E-16