# vtk DataFile Version 2.0
Output of NLACE
ASCII
DATASET UNSTRUCTURED_GRID
POINTS           88 FLOAT
 6.000000E-01  2.500000E-01  0.000000E+00
 6.500000E-01  2.500000E-01  0.000000E+00
 7.000000E-01  2.500000E-01  0.000000E+00
 7.500000E-01  2.500000E-01  0.000000E+00
 8.000000E-01  2.500000E-01  0.000000E+00
 8.500000E-01  2.500000E-01  0.000000E+00
 9.000000E-01  2.500000E-01  0.000000E+00
 9.500000E-01  2.500000E-01  0.000000E+00
 6.000000E-01  3.000000E-01  0.000000E+00
 6.500000E-01  3.000000E-01  0.000000E+00
 7.000000E-01  3.000000E-01  0.000000E+00
 7.500000E-01  3.000000E-01  0.000000E+00
 8.000000E-01  3.000000E-01  0.000000E+00
 8.500000E-01  3.000000E-01  0.000000E+00
 9.000000E-01  3.000000E-01  0.000000E+00
 9.500000E-01  3.000000E-01  0.000000E+00
 6.000000E-01  3.500000E-01  0.000000E+00
 6.500000E-01  3.500000E-01  0.000000E+00
 7.000000E-01  3.500000E-01  0.000000E+00
 7.500000E-01  3.500000E-01  0.000000E+00
 8.000000E-01  3.500000E-01  0.000000E+00
 8.500000E-01  3.500000E-01  0.000000E+00
 9.000000E-01  3.500000E-01  0.000000E+00
 9.500000E-01  3.500000E-01  0.000000E+00
 6.000000E-01  4.000000E-01  0.000000E+00
 6.500000E-01  4.000000E-01  0.000000E+00
 7.000000E-01  4.000000E-01  0.000000E+00
 7.500000E-01  4.000000E-01  0.000000E+00
 8.000000E-01  4.000000E-01  0.000000E+00
 8.500000E-01  4.000000E-01  0.000000E+00
 9.000000E-01  4.000000E-01  0.000000E+00
 9.500000E-01  4.000000E-01  0.000000E+00
 6.000000E-01  4.500000E-01  0.000000E+00
 6.500000E-01  4.500000E-01  0.000000E+00
 7.000000E-01  4.500000E-01  0.000000E+00
 7.500000E-01  4.500000E-01  0.000000E+00
 8.000000E-01  4.500000E-01  0.000000E+00
 8.500000E-01  4.500000E-01  0.000000E+00
 9.000000E-01  4.500000E-01  0.000000E+00
 9.500000E-01  4.500000E-01  0.000000E+00
 6.000000E-01  5.000000E-01  0.000000E+00
 6.500000E-01  5.000000E-01  0.000000E+00
 7.000000E-01  5.000000E-01  0.000000E+00
 7.500000E-01  5.000000E-01  0.000000E+00
 8.000000E-01  5.000000E-01  0.000000E+00
 8.500000E-01  5.000000E-01  0.000000E+00
 9.000000E-01  5.000000E-01  0.000000E+00
 9.500000E-01  5.000000E-01  0.000000E+00
 6.000000E-01  5.500000E-01  0.000000E+00
 6.500000E-01  5.500000E-01  0.000000E+00
 7.000000E-01  5.500000E-01  0.000000E+00
 7.500000E-01  5.500000E-01  0.000000E+00
 8.000000E-01  5.500000E-01  0.000000E+00
 8.500000E-01  5.500000E-01  0.000000E+00
 9.000000E-01  5.500000E-01  0.000000E+00
 9.500000E-01  5.500000E-01  0.000000E+00
 6.000000E-01  6.000000E-01  0.000000E+00
 6.500000E-01  6.000000E-01  0.000000E+00
 7.000000E-01  6.000000E-01  0.000000E+00
 7.500000E-01  6.000000E-01  0.000000E+00
 8.000000E-01  6.000000E-01  0.000000E+00
 8.500000E-01  6.000000E-01  0.000000E+00
 9.000000E-01  6.000000E-01  0.000000E+00
 9.500000E-01  6.000000E-01  0.000000E+00
 6.000000E-01  6.500000E-01  0.000000E+00
 6.500000E-01  6.500000E-01  0.000000E+00
 7.000000E-01  6.500000E-01  0.000000E+00
 7.500000E-01  6.500000E-01  0.000000E+00
 8.000000E-01  6.500000E-01  0.000000E+00
 8.500000E-01  6.500000E-01  0.000000E+00
 9.000000E-01  6.500000E-01  0.000000E+00
 9.500000E-01  6.500000E-01  0.000000E+00
 6.000000E-01  7.000000E-01  0.000000E+00
 6.500000E-01  7.000000E-01  0.000000E+00
 7.000000E-01  7.000000E-01  0.000000E+00
 7.500000E-01  7.000000E-01  0.000000E+00
 8.000000E-01  7.000000E-01  0.000000E+00
 8.500000E-01  7.000000E-01  0.000000E+00
 9.000000E-01  7.000000E-01  0.000000E+00
 9.500000E-01  7.000000E-01  0.000000E+00
 6.000000E-01  7.500000E-01  0.000000E+00
 6.500000E-01  7.500000E-01  0.000000E+00
 7.000000E-01  7.500000E-01  0.000000E+00
 7.500000E-01  7.500000E-01  0.000000E+00
 8.000000E-01  7.500000E-01  0.000000E+00
 8.500000E-01  7.500000E-01  0.000000E+00
 9.000000E-01  7.500000E-01  0.000000E+00
 9.500000E-01  7.500000E-01  0.000000E+00
CELLS          140         560
           3           0           1           8
           3           1           9           8
           3           1           2           9
           3           2          10           9
           3           2           3          10
           3           3          11          10
           3           3           4          11
           3           4          12          11
           3           4           5          12
           3           5          13          12
           3           5           6          13
           3           6          14          13
           3           6           7          14
           3           7          15          14
           3           8           9          16
           3           9          17          16
           3           9          10          17
           3          10          18          17
           3          10          11          18
           3          11          19          18
           3          11          12          19
           3          12          20          19
           3          12          13          20
           3          13          21          20
           3          13          14          21
           3          14          22          21
           3          14          15          22
           3          15          23          22
           3          16          17          24
           3          17          25          24
           3          17          18          25
           3          18          26          25
           3          18          19          26
           3          19          27          26
           3          19          20          27
           3          20          28          27
           3          20          21          28
           3          21          29          28
           3          21          22          29
           3          22          30          29
           3          22          23          30
           3          23          31          30
           3          24          25          32
           3          25          33          32
           3          25          26          33
           3          26          34          33
           3          26          27          34
           3          27          35          34
           3          27          28          35
           3          28          36          35
           3          28          29          36
           3          29          37          36
           3          29          30          37
           3          30          38          37
           3          30          31          38
           3          31          39          38
           3          32          33          40
           3          33          41          40
           3          33          34          41
           3          34          42          41
           3          34          35          42
           3          35          43          42
           3          35          36          43
           3          36          44          43
           3          36          37          44
           3          37          45          44
           3          37          38          45
           3          38          46          45
           3          38          39          46
           3          39          47          46
           3          40          41          48
           3          41          49          48
           3          41          42          49
           3          42          50          49
           3          42          43          50
           3          43          51          50
           3          43          44          51
           3          44          52          51
           3          44          45          52
           3          45          53          52
           3          45          46          53
           3          46          54          53
           3          46          47          54
           3          47          55          54
           3          48          49          56
           3          49          57          56
           3          49          50          57
           3          50          58          57
           3          50          51          58
           3          51          59          58
           3          51          52          59
           3          52          60          59
           3          52          53          60
           3          53          61          60
           3          53          54          61
           3          54          62          61
           3          54          55          62
           3          55          63          62
           3          56          57          64
           3          57          65          64
           3          57          58          65
           3          58          66          65
           3          58          59          66
           3          59          67          66
           3          59          60          67
           3          60          68          67
           3          60          61          68
           3          61          69          68
           3          61          62          69
           3          62          70          69
           3          62          63          70
           3          63          71          70
           3          64          65          72
           3          65          73          72
           3          65          66          73
           3          66          74          73
           3          66          67          74
           3          67          75          74
           3          67          68          75
           3          68          76          75
           3          68          69          76
           3          69          77          76
           3          69          70          77
           3          70          78          77
           3          70          71          78
           3          71          79          78
           3          72          73          80
           3          73          81          80
           3          73          74          81
           3          74          82          81
           3          74          75          82
           3          75          83          82
           3          75          76          83
           3          76          84          83
           3          76          77          84
           3          77          85          84
           3          77          78          85
           3          78          86          85
           3          78          79          86
           3          79          87          86
CELL_TYPES          140
5
5
5
5
5
5
5
5
5
5
5
5
5
5
5
5
5
5
5
5
5
5
5
5
5
5
5
5
5
5
5
5
5
5
5
5
5
5
5
5
5
5
5
5
5
5
5
5
5
5
5
5
5
5
5
5
5
5
5
5
5
5
5
5
5
5
5
5
5
5
5
5
5
5
5
5
5
5
5
5
5
5
5
5
5
5
5
5
5
5
5
5
5
5
5
5
5
5
5
5
5
5
5
5
5
5
5
5
5
5
5
5
5
5
5
5
5
5
5
5
5
5
5
5
5
5
5
5
5
5
5
5
5
5
5
5
5
5
5
5
POINT_DATA           88
 SCALARS measuredDisp11 float  1                   
LOOKUP_TABLE default
 1.60000E-04
 2.36000E-04
 3.78000E-04
 5.10000E-04
 5.99000E-04
 7.16000E-04
 8.28000E-04
 9.85000E-04
 1.80000E-04
 2.39000E-04
 4.14000E-04
 4.16000E-04
 5.88000E-04
 7.34000E-04
 8.06000E-04
 9.81000E-04
 1.76000E-04
 3.33000E-04
 3.51000E-04
 3.74000E-04
 5.56000E-04
 6.67000E-04
 7.67000E-04
 8.85000E-04
 2.18000E-04
 3.55000E-04
 4.39000E-04
 5.02000E-04
 5.04000E-04
 5.75000E-04
 6.77000E-04
 7.85000E-04
 2.65000E-04
 4.09000E-04
 5.20000E-04
 5.11000E-04
 5.49000E-04
 5.82000E-04
 5.87000E-04
 8.10000E-04
 2.37000E-04
 3.57000E-04
 5.39000E-04
 4.27000E-04
 5.30000E-04
 6.13000E-04
 6.18000E-04
 6.40000E-04
 2.28000E-04
 3.42000E-04
 5.19000E-04
 4.62000E-04
 5.10000E-04
 6.02000E-04
 5.97000E-04
 8.01000E-04
 1.86000E-04
 3.10000E-04
 4.09000E-04
 5.36000E-04
 5.25000E-04
 5.93000E-04
 6.97000E-04
 7.79000E-04
 1.95000E-04
 2.72000E-04
 3.78000E-04
 4.81000E-04
 5.57000E-04
 6.59000E-04
 8.34000E-04
 8.67000E-04
 1.60000E-04
 2.57000E-04
 4.53000E-04
 4.60000E-04
 5.96000E-04
 7.29000E-04
 8.04000E-04
 9.40000E-04
 1.89000E-04
 2.52000E-04
 3.96000E-04
 4.41000E-04
 5.92000E-04
 7.39000E-04
 9.06000E-04
 9.78000E-04
 SCALARS measuredDisp12 float  1                   
LOOKUP_TABLE default
 1.52300E-03
 1.49400E-03
 1.47800E-03
 1.37500E-03
 1.37100E-03
 1.43200E-03
 1.39700E-03
 1.51600E-03
 1.38600E-03
 1.43000E-03
 1.32100E-03
 1.30900E-03
 1.23200E-03
 1.34200E-03
 1.36900E-03
 1.42900E-03
 1.33200E-03
 1.28300E-03
 1.24700E-03
 1.17400E-03
 1.18700E-03
 1.18400E-03
 1.29500E-03
 1.29500E-03
 1.24200E-03
 1.18800E-03
 1.17600E-03
 1.10000E-03
 1.03800E-03
 1.10900E-03
 1.10200E-03
 1.21700E-03
 1.17100E-03
 1.07600E-03
 1.04500E-03
 1.00900E-03
 1.10900E-03
 1.02900E-03
 1.06300E-03
 1.06500E-03
 1.01900E-03
 1.01900E-03
 1.02100E-03
 9.31000E-04
 1.04200E-03
 1.03900E-03
 9.84000E-04
 9.95000E-04
 8.93000E-04
 9.46000E-04
 9.82000E-04
 9.78000E-04
 9.54000E-04
 9.32000E-04
 9.23000E-04
 9.56000E-04
 7.84000E-04
 7.58000E-04
 8.28000E-04
 9.00000E-04
 8.74000E-04
 9.25000E-04
 9.24000E-04
 8.07000E-04
 6.60000E-04
 7.70000E-04
 8.23000E-04
 8.59000E-04
 8.85000E-04
 8.07000E-04
 7.87000E-04
 7.12000E-04
 6.24000E-04
 5.67000E-04
 6.54000E-04
 7.09000E-04
 7.34000E-04
 7.27000E-04
 6.30000E-04
 5.98000E-04
 5.12000E-04
 4.59000E-04
 5.47000E-04
 5.89000E-04
 5.95000E-04
 6.48000E-04
 5.20000E-04
 5.02000E-04
 SCALARS measuredDisp13 float  1                   
LOOKUP_TABLE default
 4.29600E-03
 4.18100E-03
 3.88600E-03
 3.35800E-03
 2.89100E-03
 2.65600E-03
 2.88000E-03
 3.45500E-03
 3.90000E-03
 4.22100E-03
 4.36400E-03
 4.57000E-03
 4.40600E-03
 4.19500E-03
 3.50900E-03
 2.40800E-03
 1.94000E-03
 2.46100E-03
 3.62000E-03
 4.16300E-03
 4.47600E-03
 4.46600E-03
 4.78600E-03
 4.80500E-03
 4.93700E-03
 4.25500E-03
 2.31600E-03
 1.88700E-03
 2.38500E-03
 4.28500E-03
 4.91200E-03
 4.83700E-03
 4.72200E-03
 4.96400E-03
 5.38100E-03
 6.06900E-03
 6.07100E-03
 4.27400E-03
 4.92200E-03
 4.25300E-03
 6.04200E-03
 5.92800E-03
 5.38200E-03
 4.95300E-03
 5.07000E-03
 5.52600E-03
 6.50000E-03
 6.48300E-03
 4.17200E-03
 4.60700E-03
 4.15100E-03
 6.49300E-03
 6.53600E-03
 5.54200E-03
 4.97000E-03
 4.91300E-03
 5.20500E-03
 5.77700E-03
 5.89600E-03
 4.72800E-03
 5.21500E-03
 4.68700E-03
 5.95300E-03
 5.91800E-03
 5.28800E-03
 4.83100E-03
 4.44600E-03
 4.59100E-03
 4.75900E-03
 4.39000E-03
 3.38200E-03
 3.30100E-03
 3.37800E-03
 4.42100E-03
 4.84600E-03
 4.59600E-03
 4.50300E-03
 4.02500E-03
 4.02900E-03
 4.05400E-03
 3.98400E-03
 3.87100E-03
 3.62800E-03
 3.77000E-03
 3.99600E-03
 4.05500E-03
 4.02200E-03
 4.00000E-03
 SCALARS predictedDisp11 float  1                  
LOOKUP_TABLE default
 2.11721E-04
 2.98711E-04
 3.78000E-04
 4.83406E-04
 6.09095E-04
 7.06356E-04
 8.19973E-04
 9.21337E-04
 2.25882E-04
 3.16897E-04
 4.12201E-04
 5.05329E-04
 5.98766E-04
 6.91136E-04
 7.78337E-04
 8.56562E-04
 2.30400E-04
 3.29191E-04
 4.25100E-04
 5.13598E-04
 5.97156E-04
 6.79675E-04
 7.59854E-04
 8.41489E-04
 2.46581E-04
 3.42810E-04
 4.35894E-04
 5.20720E-04
 5.99628E-04
 6.77066E-04
 7.55259E-04
 8.33170E-04
 2.65630E-04
 3.59989E-04
 4.47788E-04
 5.28675E-04
 6.04906E-04
 6.80868E-04
 7.59692E-04
 8.43591E-04
 2.81152E-04
 3.69020E-04
 4.54299E-04
 5.33991E-04
 6.10323E-04
 6.88272E-04
 7.72026E-04
 8.65566E-04
 2.69645E-04
 3.63119E-04
 4.51643E-04
 5.33449E-04
 6.11384E-04
 6.89528E-04
 7.70789E-04
 8.53910E-04
 2.53201E-04
 3.49151E-04
 4.42009E-04
 5.28317E-04
 6.09368E-04
 6.88241E-04
 7.68142E-04
 8.53195E-04
 2.24047E-04
 3.26055E-04
 4.27910E-04
 5.21378E-04
 6.08314E-04
 6.92808E-04
 7.78061E-04
 8.68248E-04
 2.01537E-04
 3.10551E-04
 4.14346E-04
 5.12472E-04
 6.06987E-04
 7.02501E-04
 7.95501E-04
 8.89016E-04
 2.19194E-04
 3.03943E-04
 3.82303E-04
 4.92168E-04
 5.98150E-04
 7.19794E-04
 8.39883E-04
 9.20245E-04
 SCALARS predictedDisp12 float  1                  
LOOKUP_TABLE default
 1.52300E-03
 1.49400E-03
 1.47800E-03
 1.37500E-03
 1.37100E-03
 1.43200E-03
 1.39700E-03
 1.51600E-03
 1.38600E-03
 1.38809E-03
 1.36221E-03
 1.31413E-03
 1.30485E-03
 1.32661E-03
 1.34468E-03
 1.42900E-03
 1.33200E-03
 1.29544E-03
 1.26470E-03
 1.23571E-03
 1.22742E-03
 1.23856E-03
 1.25957E-03
 1.29500E-03
 1.24200E-03
 1.20228E-03
 1.17407E-03
 1.15545E-03
 1.15036E-03
 1.15802E-03
 1.17587E-03
 1.21700E-03
 1.17100E-03
 1.11264E-03
 1.08892E-03
 1.07776E-03
 1.07542E-03
 1.07909E-03
 1.08258E-03
 1.06500E-03
 1.01900E-03
 1.01058E-03
 1.00376E-03
 1.00085E-03
 1.00115E-03
 1.00280E-03
 1.00325E-03
 9.95000E-04
 8.93000E-04
 9.09612E-04
 9.17602E-04
 9.22936E-04
 9.25644E-04
 9.25566E-04
 9.26649E-04
 9.56000E-04
 7.84000E-04
 8.10008E-04
 8.29490E-04
 8.42909E-04
 8.48735E-04
 8.45865E-04
 8.32050E-04
 8.07000E-04
 6.60000E-04
 7.04747E-04
 7.35572E-04
 7.58152E-04
 7.68652E-04
 7.66517E-04
 7.40132E-04
 7.12000E-04
 6.24000E-04
 6.01631E-04
 6.39040E-04
 6.71020E-04
 6.84845E-04
 6.91412E-04
 6.38509E-04
 5.98000E-04
 5.12000E-04
 4.59000E-04
 5.47000E-04
 5.89000E-04
 5.95000E-04
 6.48000E-04
 5.20000E-04
 5.02000E-04
 SCALARS predictedDisp13 float  1                  
LOOKUP_TABLE default
 4.11500E-03
 3.98510E-03
 3.60816E-03
 3.00547E-03
 2.79491E-03
 2.96819E-03
 2.97654E-03
 3.07687E-03
 3.89772E-03
 3.79221E-03
 3.52281E-03
 3.10603E-03
 3.02183E-03
 3.13789E-03
 3.24612E-03
 3.45364E-03
 3.69423E-03
 3.70327E-03
 3.57576E-03
 3.36942E-03
 3.32696E-03
 3.44624E-03
 3.63489E-03
 3.77317E-03
 3.82931E-03
 3.82211E-03
 3.73095E-03
 3.60126E-03
 3.56685E-03
 3.65816E-03
 3.82517E-03
 3.98710E-03
 4.24013E-03
 4.17245E-03
 3.96364E-03
 3.79144E-03
 3.71892E-03
 3.75942E-03
 3.88357E-03
 3.92484E-03
 4.58765E-03
 4.39172E-03
 4.11121E-03
 3.89422E-03
 3.77192E-03
 3.72985E-03
 3.70689E-03
 3.65121E-03
 4.52898E-03
 4.36574E-03
 4.11258E-03
 3.89890E-03
 3.77516E-03
 3.74650E-03
 3.78086E-03
 3.87554E-03
 4.35261E-03
 4.24129E-03
 4.02260E-03
 3.82120E-03
 3.71548E-03
 3.74877E-03
 3.93719E-03
 4.05621E-03
 4.06350E-03
 4.03239E-03
 3.88874E-03
 3.67135E-03
 3.54357E-03
 3.56412E-03
 3.79704E-03
 3.94176E-03
 4.07651E-03
 4.15035E-03
 3.86974E-03
 3.50291E-03
 3.30290E-03
 3.27500E-03
 3.64976E-03
 3.86310E-03
 4.40477E-03
 4.31896E-03
 3.82958E-03
 3.39295E-03
 3.10953E-03
 3.10241E-03
 3.61455E-03
 3.79284E-03
 SCALARS dual11 float  1                           
LOOKUP_TABLE default
-1.96224E-08
-9.02493E-09
 0.00000E+00
 1.73707E-08
 4.08206E-08
 6.43897E-08
 8.02157E-08
 9.53222E-08
-1.06671E-08
-1.81466E-09
 8.21078E-09
 2.23447E-08
 4.16864E-08
 5.72262E-08
 6.85372E-08
 8.15764E-08
 1.86093E-08
 2.33812E-08
 2.71071E-08
 3.21516E-08
 3.67024E-08
 3.93696E-08
 4.07342E-08
 4.60596E-08
 6.03964E-08
 5.59909E-08
 5.10278E-08
 4.33514E-08
 3.13555E-08
 1.60398E-08
 5.85776E-09
-3.76397E-09
 9.76934E-08
 8.45666E-08
 7.11209E-08
 5.12744E-08
 2.39514E-08
-1.96502E-09
-2.37435E-08
-4.41094E-08
 1.14359E-07
 9.55957E-08
 7.71267E-08
 5.15290E-08
 2.00878E-08
-8.51327E-09
-3.25171E-08
-5.75757E-08
 9.82754E-08
 8.23888E-08
 6.72851E-08
 4.54302E-08
 2.21955E-08
 1.40084E-09
-1.75773E-08
-3.77691E-08
 5.47041E-08
 4.96710E-08
 4.30132E-08
 3.47030E-08
 2.79903E-08
 2.20159E-08
 1.86058E-08
 1.54016E-08
-9.25985E-10
 4.28427E-09
 1.08793E-08
 2.15694E-08
 3.54225E-08
 5.16608E-08
 6.71801E-08
 8.08796E-08
-5.38110E-08
-3.45411E-08
-1.53116E-08
 1.22350E-08
 4.57731E-08
 7.86519E-08
 1.06246E-07
 1.29771E-07
-7.65849E-08
-5.13943E-08
-2.49737E-08
 1.11269E-08
 5.26233E-08
 9.06920E-08
 1.19289E-07
 1.43758E-07
 SCALARS dual12 float  1                           
LOOKUP_TABLE default
 0.00000E+00
 0.00000E+00
 0.00000E+00
 0.00000E+00
 0.00000E+00
 0.00000E+00
 0.00000E+00
 0.00000E+00
 0.00000E+00
-4.24411E-09
-3.73479E-08
-5.65920E-08
-6.89961E-08
-3.60683E-08
-6.40345E-09
 0.00000E+00
 0.00000E+00
-2.24544E-08
-5.80379E-08
-9.73904E-08
-1.05270E-07
-7.37414E-08
-2.41685E-08
 0.00000E+00
 0.00000E+00
-2.73001E-08
-5.90324E-08
-1.01323E-07
-1.08964E-07
-7.84376E-08
-4.70525E-08
 0.00000E+00
 0.00000E+00
-2.22754E-08
-4.30515E-08
-6.46230E-08
-4.03904E-08
-3.56859E-08
-2.38167E-08
 0.00000E+00
 0.00000E+00
 7.54571E-09
 1.23991E-08
 7.90807E-09
 3.73751E-08
 3.21119E-08
 1.01161E-08
 0.00000E+00
 0.00000E+00
 3.41563E-08
 6.84969E-08
 9.23585E-08
 1.01816E-07
 8.31572E-08
 4.81826E-08
 0.00000E+00
 0.00000E+00
 3.33737E-08
 9.33899E-08
 1.41425E-07
 1.49761E-07
 1.36044E-07
 8.86347E-08
 0.00000E+00
 0.00000E+00
 5.12253E-08
 1.13245E-07
 1.59414E-07
 1.69468E-07
 1.34196E-07
 7.75466E-08
 0.00000E+00
 0.00000E+00
 2.25835E-08
 6.46223E-08
 9.71642E-08
 1.02853E-07
 7.85640E-08
 3.70652E-08
 0.00000E+00
 0.00000E+00
 0.00000E+00
 0.00000E+00
 0.00000E+00
 0.00000E+00
 0.00000E+00
 0.00000E+00
 0.00000E+00
 SCALARS dual13 float  1                           
LOOKUP_TABLE default
-4.54530E-07
-5.94339E-07
-9.68195E-07
-1.29934E-06
-1.39638E-06
-1.15357E-06
-7.62280E-07
-5.57827E-07
-3.88794E-07
-5.45882E-07
-8.42921E-07
-1.08835E-06
-1.12735E-06
-9.31777E-07
-6.45459E-07
-5.04002E-07
-1.76008E-07
-2.51019E-07
-3.48759E-07
-4.33044E-07
-4.38217E-07
-3.91751E-07
-3.08790E-07
-2.62148E-07
 1.87092E-07
 2.25269E-07
 3.59478E-07
 4.97276E-07
 5.84390E-07
 4.87822E-07
 3.16973E-07
 2.31134E-07
 5.41755E-07
 7.16558E-07
 1.09284E-06
 1.42623E-06
 1.52572E-06
 1.29766E-06
 9.15253E-07
 6.75687E-07
 7.34924E-07
 9.82469E-07
 1.45594E-06
 1.82729E-06
 1.86332E-06
 1.58183E-06
 1.14387E-06
 8.76408E-07
 5.86656E-07
 7.91936E-07
 1.19647E-06
 1.51025E-06
 1.52693E-06
 1.33091E-06
 9.95351E-07
 7.78587E-07
 2.03462E-07
 3.28121E-07
 5.28683E-07
 6.66923E-07
 6.74453E-07
 5.57909E-07
 3.66792E-07
 2.80685E-07
-2.32489E-07
-2.91270E-07
-4.46458E-07
-5.69130E-07
-6.22899E-07
-5.95922E-07
-4.75195E-07
-3.45077E-07
-7.07937E-07
-9.14778E-07
-1.33820E-06
-1.66504E-06
-1.71890E-06
-1.47191E-06
-1.05050E-06
-7.75850E-07
-8.64790E-07
-1.16722E-06
-1.71327E-06
-2.09737E-06
-2.10185E-06
-1.72348E-06
-1.17618E-06
-8.92373E-07
 SCALARS NLP float  1                              
LOOKUP_TABLE default
 0.00000E+00
 0.00000E+00
 0.00000E+00
 0.00000E+00
 0.00000E+00
 0.00000E+00
 0.00000E+00
 0.00000E+00
 0.00000E+00
 0.00000E+00
 0.00000E+00
 0.00000E+00
 0.00000E+00
 0.00000E+00
 0.00000E+00
 0.00000E+00
 0.00000E+00
 0.00000E+00
 0.00000E+00
 0.00000E+00
 0.00000E+00
 0.00000E+00
 0.00000E+00
 0.00000E+00
 0.00000E+00
 0.00000E+00
 0.00000E+00
 0.00000E+00
 0.00000E+00
 0.00000E+00
 0.00000E+00
 0.00000E+00
 0.00000E+00
 0.00000E+00
 0.00000E+00
 0.00000E+00
 0.00000E+00
 0.00000E+00
 0.00000E+00
 0.00000E+00
 0.00000E+00
 0.00000E+00
 0.00000E+00
 0.00000E+00
 0.00000E+00
 0.00000E+00
 0.00000E+00
 0.00000E+00
 0.00000E+00
 0.00000E+00
 0.00000E+00
 0.00000E+00
 0.00000E+00
 0.00000E+00
 0.00000E+00
 0.00000E+00
 0.00000E+00
 0.00000E+00
 0.00000E+00
 0.00000E+00
 0.00000E+00
 0.00000E+00
 0.00000E+00
 0.00000E+00
 0.00000E+00
 0.00000E+00
 0.00000E+00
 0.00000E+00
 0.00000E+00
 0.00000E+00
 0.00000E+00
 0.00000E+00
 0.00000E+00
 0.00000E+00
 0.00000E+00
 0.00000E+00
 0.00000E+00
 0.00000E+00
 0.00000E+00
 0.00000E+00
 0.00000E+00
 0.00000E+00
 0.00000E+00
 0.00000E+00
 0.00000E+00
 0.00000E+00
 0.00000E+00
 0.00000E+00
 SCALARS SM float  1                               
LOOKUP_TABLE default
 1.03790E+00
 1.03749E+00
 1.02814E+00
 1.02502E+00
 1.02190E+00
 1.02779E+00
 1.03349E+00
 1.03430E+00
 1.03875E+00
 1.02943E+00
 1.03221E+00
 1.01452E+00
 1.02566E+00
 1.02437E+00
 1.03273E+00
 1.04284E+00
 1.04239E+00
 1.04344E+00
 1.04042E+00
 1.03862E+00
 1.03720E+00
 1.04088E+00
 1.04864E+00
 1.05058E+00
 1.05991E+00
 1.06290E+00
 1.06782E+00
 1.07734E+00
 1.08614E+00
 1.07862E+00
 1.07019E+00
 1.07159E+00
 1.07399E+00
 1.08428E+00
 1.09613E+00
 1.10668E+00
 1.11212E+00
 1.10277E+00
 1.09207E+00
 1.08508E+00
 1.08232E+00
 1.08818E+00
 1.09836E+00
 1.11577E+00
 1.11431E+00
 1.10389E+00
 1.10004E+00
 1.08082E+00
 1.08091E+00
 1.08237E+00
 1.09525E+00
 1.11197E+00
 1.10469E+00
 1.10083E+00
 1.08791E+00
 1.07789E+00
 1.06002E+00
 1.06441E+00
 1.07304E+00
 1.07606E+00
 1.07399E+00
 1.06646E+00
 1.05762E+00
 1.05202E+00
 1.04324E+00
 1.03606E+00
 1.02479E+00
 1.01342E+00
 1.01092E+00
 1.01355E+00
 1.01193E+00
 1.02591E+00
 1.03527E+00
 1.00000E+00
 1.00000E+00
 1.00000E+00
 1.00000E+00
 1.00000E+00
 1.00151E+00
 1.01963E+00
 1.01489E+00
 1.00303E+00
 1.00000E+00
 1.00000E+00
 1.00000E+00
 1.00000E+00
 1.01068E+00
 1.02474E+00
 SCALARS gradient1 float  1                        
LOOKUP_TABLE default
 0.00000E+00
 0.00000E+00
 0.00000E+00
 0.00000E+00
 0.00000E+00
 0.00000E+00
 0.00000E+00
 0.00000E+00
 0.00000E+00
 0.00000E+00
 0.00000E+00
 0.00000E+00
 0.00000E+00
 0.00000E+00
 0.00000E+00
 0.00000E+00
 0.00000E+00
 0.00000E+00
 0.00000E+00
 0.00000E+00
 0.00000E+00
 0.00000E+00
 0.00000E+00
 0.00000E+00
 0.00000E+00
 0.00000E+00
 0.00000E+00
 0.00000E+00
 0.00000E+00
 0.00000E+00
 0.00000E+00
 0.00000E+00
 0.00000E+00
 0.00000E+00
 0.00000E+00
 0.00000E+00
 0.00000E+00
 0.00000E+00
 0.00000E+00
 0.00000E+00
 0.00000E+00
 0.00000E+00
 0.00000E+00
 0.00000E+00
 0.00000E+00
 0.00000E+00
 0.00000E+00
 0.00000E+00
 0.00000E+00
 0.00000E+00
 0.00000E+00
 0.00000E+00
 0.00000E+00
 0.00000E+00
 0.00000E+00
 0.00000E+00
 0.00000E+00
 0.00000E+00
 0.00000E+00
 0.00000E+00
 0.00000E+00
 0.00000E+00
 0.00000E+00
 0.00000E+00
 0.00000E+00
 0.00000E+00
 0.00000E+00
 0.00000E+00
 0.00000E+00
 0.00000E+00
 0.00000E+00
 0.00000E+00
 0.00000E+00
 0.00000E+00
 0.00000E+00
 0.00000E+00
 0.00000E+00
 0.00000E+00
 0.00000E+00
 0.00000E+00
 0.00000E+00
 0.00000E+00
 0.00000E+00
 0.00000E+00
 0.00000E+00
 0.00000E+00
 0.00000E+00
 0.00000E+00
 SCALARS gradient2 float  1                        
LOOKUP_TABLE default
-2.19044E-13
 3.18254E-12
 1.64349E-12
 7.41555E-12
 4.58184E-12
 7.85485E-12
 3.78073E-12
 7.99196E-13
 3.78797E-12
-2.85694E-12
 1.14984E-11
 2.25074E-12
 1.14030E-11
 1.35637E-12
 4.96445E-13
 2.17860E-12
 1.05189E-13
 3.51490E-12
 2.23676E-12
 4.09220E-12
 2.98973E-12
 2.36164E-12
 2.44394E-12
 8.65720E-13
-6.04364E-13
-1.07394E-12
-2.06905E-12
-3.62187E-12
-5.17947E-12
-4.77176E-12
-3.79600E-12
-1.51299E-12
-2.42981E-12
-4.16814E-12
-6.77567E-12
-1.10146E-11
-1.05891E-11
-9.65643E-12
-8.29300E-12
-2.93167E-12
-3.78781E-12
-5.37986E-12
-1.12807E-11
-9.24326E-12
-1.12074E-11
-1.14785E-11
-4.79443E-12
-5.26664E-12
-1.89202E-12
-6.95276E-12
-8.04032E-12
-8.78392E-12
-1.08566E-11
-9.57841E-12
-7.66877E-12
-2.99464E-12
-1.54283E-12
-3.03472E-12
-4.96896E-12
-6.43561E-12
-6.22456E-12
-4.90968E-12
-2.04237E-12
 2.47909E-13
 3.18179E-13
 7.15425E-13
 3.96588E-12
 5.10965E-12
 6.01332E-12
 8.10591E-12
 4.91904E-12
 3.79551E-12
 4.34847E-12
 4.31592E-12
 1.15784E-11
 1.59492E-11
 1.75883E-11
 1.21399E-11
 7.16513E-12
 4.99488E-12
 3.29629E-12
 7.80152E-12
 8.09306E-12
 1.24728E-11
 1.19303E-11
 6.88169E-12
 6.28934E-12
 2.30581E-12
CELL_DATA         140
SCALARS elemDataMatch  float  1
LOOKUP_TABLE default
 0.00000E+00
 1.82944E-13
 1.82944E-13
 1.79948E-13
 1.76902E-13
 2.01679E-13
 2.74426E-15
 5.94454E-13
 5.52762E-13
 4.60664E-13
 2.46645E-14
 1.25283E-13
 6.16302E-14
 6.16302E-14
 1.82944E-13
 1.44752E-13
 1.95174E-13
 3.77975E-13
 3.19727E-13
 5.88289E-13
 1.49244E-12
 2.15459E-12
 8.72841E-13
 5.82539E-13
 2.09707E-13
 2.52677E-13
 2.82186E-13
 1.30779E-13
 1.61305E-14
 5.58692E-14
 1.37747E-13
 7.41367E-14
 5.27527E-13
 1.05026E-12
 1.73697E-12
 3.16099E-12
 3.13683E-12
 3.36630E-12
 5.87499E-13
 8.73091E-13
 4.26544E-13
 5.68412E-13
 2.12324E-14
 2.15591E-13
 2.05752E-13
 4.92623E-13
 7.55263E-13
 1.97913E-12
 3.97867E-12
 2.09621E-12
 1.69191E-12
 5.38206E-13
 2.09847E-12
 1.50805E-12
 7.59050E-13
 3.99484E-14
 1.39864E-13
 1.15102E-13
 4.45112E-13
 1.36988E-13
 8.36613E-13
 1.28303E-12
 1.13363E-12
 4.00837E-13
 3.07195E-13
 3.23721E-13
 2.77277E-13
 1.07906E-13
 1.17844E-13
 3.86179E-14
 7.39270E-15
 1.77253E-13
 2.88728E-13
 1.02603E-12
 4.92819E-13
 7.56210E-13
 5.34312E-13
 1.09103E-12
 7.75755E-13
 3.74793E-13
 1.18201E-13
 3.62850E-14
 4.73225E-14
 1.38671E-15
 1.37928E-13
 2.22547E-13
 5.49756E-13
 3.63172E-13
 1.09888E-12
 9.65635E-13
 1.39785E-12
 8.83281E-13
 2.65125E-13
 1.00136E-12
 6.78538E-13
 2.22735E-12
 8.47141E-13
 8.80701E-13
 2.81752E-13
 3.71782E-13
 3.69957E-13
 1.81054E-12
 1.63346E-12
 4.23325E-12
 2.48083E-12
 4.32983E-12
 3.60245E-12
 4.01655E-12
 3.18316E-12
 2.31453E-12
 1.55842E-12
 2.28815E-13
 4.43537E-13
 3.33071E-13
 1.40816E-12
 7.11337E-13
 3.09076E-12
 1.84831E-12
 4.70128E-12
 3.06255E-12
 3.12614E-12
 1.09392E-12
 1.05292E-12
 4.68945E-13
 1.94814E-13
 7.54271E-15
 1.24930E-13
 1.24930E-13
 9.42758E-14
 2.33123E-14
 2.32760E-13
 1.50262E-13
 5.96422E-13
 2.51688E-13
 5.65842E-13
 1.31930E-13
 1.07928E-13
 7.54271E-15
 7.54271E-15
 0.00000E+00
SCALARS elemRegul  float  1
LOOKUP_TABLE default
 1.22208E-15
 1.54014E-14
 1.54315E-14
 6.16882E-15
 6.41640E-15
 2.57223E-14
 1.37051E-14
 1.46952E-14
 8.74841E-15
 4.58058E-15
 8.31082E-15
 1.04946E-14
 1.42869E-15
 1.65504E-14
 1.25081E-14
 1.75565E-14
 1.78484E-14
 1.09366E-14
 2.43820E-14
 3.02064E-14
 3.31828E-14
 1.45400E-14
 1.45207E-14
 2.11510E-14
 2.31361E-14
 2.21271E-14
 2.35694E-14
 9.98115E-15
 2.19436E-14
 2.46178E-14
 2.46230E-14
 3.48040E-14
 3.43302E-14
 4.98392E-14
 4.84329E-14
 6.21637E-14
 6.13544E-14
 4.81044E-14
 4.81633E-14
 2.89301E-14
 2.70496E-14
 2.63170E-14
 1.79927E-14
 2.96590E-14
 2.74232E-14
 3.83642E-14
 3.73316E-14
 3.89829E-14
 3.83012E-14
 3.31709E-14
 3.38007E-14
 3.23627E-14
 3.19680E-14
 3.04463E-14
 2.74098E-14
 1.89974E-14
 1.65529E-14
 8.80761E-15
 1.56009E-14
 1.30204E-14
 1.34792E-14
 2.45527E-14
 1.32368E-14
 3.30908E-15
 1.20087E-14
 1.31017E-14
 1.34474E-14
 1.10701E-14
 1.32517E-14
 2.46104E-14
 7.54240E-15
 7.49261E-15
 1.46464E-14
 1.65592E-14
 2.21114E-14
 2.14376E-14
 5.09009E-15
 1.50796E-14
 1.77255E-14
 6.16941E-15
 6.16242E-15
 2.21533E-14
 2.84094E-14
 1.30566E-14
 2.61750E-14
 2.31185E-14
 2.76312E-14
 2.97886E-14
 3.47558E-14
 4.50551E-14
 4.58094E-14
 3.84686E-14
 3.86843E-14