# vtk DataFile Version 2.0
Output of NLACE
ASCII
DATASET UNSTRUCTURED_GRID
POINTS           88 FLOAT
 6.000000E-01  2.500000E-01  0.000000E+00
 6.500000E-01  2.500000E-01  0.000000E+00
 7.000000E-01  2.500000E-01  0.000000E+00
 7.500000E-01  2.500000E-01  0.000000E+00
 8.000000E-01  2.500000E-01  0.000000E+00
 8.500000E-01  2.500000E-01  0.000000E+00
 9.000000E-01  2.500000E-01  0.000000E+00
 9.500000E-01  2.500000E-01  0.000000E+00
 6.000000E-01  3.000000E-01  0.000000E+00
 6.500000E-01  3.000000E-01  0.000000E+00
 7.000000E-01  3.000000E-01  0.000000E+00
 7.500000E-01  3.000000E-01  0.000000E+00
 8.000000E-01  3.000000E-01  0.000000E+00
 8.500000E-01  3.000000E-01  0.000000E+00
 9.000000E-01  3.000000E-01  0.000000E+00
 9.500000E-01  3.000000E-01  0.000000E+00
 6.000000E-01  3.500000E-01  0.000000E+00
 6.500000E-01  3.500000E-01  0.000000E+00
 7.000000E-01  3.500000E-01  0.000000E+00
 7.500000E-01  3.500000E-01  0.000000E+00
 8.000000E-01  3.500000E-01  0.000000E+00
 8.500000E-01  3.500000E-01  0.000000E+00
 9.000000E-01  3.500000E-01  0.000000E+00
 9.500000E-01  3.500000E-01  0.000000E+00
 6.000000E-01  4.000000E-01  0.000000E+00
 6.500000E-01  4.000000E-01  0.000000E+00
 7.000000E-01  4.000000E-01  0.000000E+00
 7.500000E-01  4.000000E-01  0.000000E+00
 8.000000E-01  4.000000E-01  0.000000E+00
 8.500000E-01  4.000000E-01  0.000000E+00
 9.000000E-01  4.000000E-01  0.000000E+00
 9.500000E-01  4.000000E-01  0.000000E+00
 6.000000E-01  4.500000E-01  0.000000E+00
 6.500000E-01  4.500000E-01  0.000000E+00
 7.000000E-01  4.500000E-01  0.000000E+00
 7.500000E-01  4.500000E-01  0.000000E+00
 8.000000E-01  4.500000E-01  0.000000E+00
 8.500000E-01  4.500000E-01  0.000000E+00
 9.000000E-01  4.500000E-01  0.000000E+00
 9.500000E-01  4.500000E-01  0.000000E+00
 6.000000E-01  5.000000E-01  0.000000E+00
 6.500000E-01  5.000000E-01  0.000000E+00
 7.000000E-01  5.000000E-01  0.000000E+00
 7.500000E-01  5.000000E-01  0.000000E+00
 8.000000E-01  5.000000E-01  0.000000E+00
 8.500000E-01  5.000000E-01  0.000000E+00
 9.000000E-01  5.000000E-01  0.000000E+00
 9.500000E-01  5.000000E-01  0.000000E+00
 6.000000E-01  5.500000E-01  0.000000E+00
 6.500000E-01  5.500000E-01  0.000000E+00
 7.000000E-01  5.500000E-01  0.000000E+00
 7.500000E-01  5.500000E-01  0.000000E+00
 8.000000E-01  5.500000E-01  0.000000E+00
 8.500000E-01  5.500000E-01  0.000000E+00
 9.000000E-01  5.500000E-01  0.000000E+00
 9.500000E-01  5.500000E-01  0.000000E+00
 6.000000E-01  6.000000E-01  0.000000E+00
 6.500000E-01  6.000000E-01  0.000000E+00
 7.000000E-01  6.000000E-01  0.000000E+00
 7.500000E-01  6.000000E-01  0.000000E+00
 8.000000E-01  6.000000E-01  0.000000E+00
 8.500000E-01  6.000000E-01  0.000000E+00
 9.000000E-01  6.000000E-01  0.000000E+00
 9.500000E-01  6.000000E-01  0.000000E+00
 6.000000E-01  6.500000E-01  0.000000E+00
 6.500000E-01  6.500000E-01  0.000000E+00
 7.000000E-01  6.500000E-01  0.000000E+00
 7.500000E-01  6.500000E-01  0.000000E+00
 8.000000E-01  6.500000E-01  0.000000E+00
 8.500000E-01  6.500000E-01  0.000000E+00
 9.000000E-01  6.500000E-01  0.000000E+00
 9.500000E-01  6.500000E-01  0.000000E+00
 6.000000E-01  7.000000E-01  0.000000E+00
 6.500000E-01  7.000000E-01  0.000000E+00
 7.000000E-01  7.000000E-01  0.000000E+00
 7.500000E-01  7.000000E-01  0.000000E+00
 8.000000E-01  7.000000E-01  0.000000E+00
 8.500000E-01  7.000000E-01  0.000000E+00
 9.000000E-01  7.000000E-01  0.000000E+00
 9.500000E-01  7.000000E-01  0.000000E+00
 6.000000E-01  7.500000E-01  0.000000E+00
 6.500000E-01  7.500000E-01  0.000000E+00
 7.000000E-01  7.500000E-01  0.000000E+00
 7.500000E-01  7.500000E-01  0.000000E+00
 8.000000E-01  7.500000E-01  0.000000E+00
 8.500000E-01  7.500000E-01  0.000000E+00
 9.000000E-01  7.500000E-01  0.000000E+00
 9.500000E-01  7.500000E-01  0.000000E+00
CELLS          140         560
           3           0           1           8
           3           1           9           8
           3           1           2           9
           3           2          10           9
           3           2           3          10
           3           3          11          10
           3           3           4          11
           3           4          12          11
           3           4           5          12
           3           5          13          12
           3           5           6          13
           3           6          14          13
           3           6           7          14
           3           7          15          14
           3           8           9          16
           3           9          17          16
           3           9          10          17
           3          10          18          17
           3          10          11          18
           3          11          19          18
           3          11          12          19
           3          12          20          19
           3          12          13          20
           3          13          21          20
           3          13          14          21
           3          14          22          21
           3          14          15          22
           3          15          23          22
           3          16          17          24
           3          17          25          24
           3          17          18          25
           3          18          26          25
           3          18          19          26
           3          19          27          26
           3          19          20          27
           3          20          28          27
           3          20          21          28
           3          21          29          28
           3          21          22          29
           3          22          30          29
           3          22          23          30
           3          23          31          30
           3          24          25          32
           3          25          33          32
           3          25          26          33
           3          26          34          33
           3          26          27          34
           3          27          35          34
           3          27          28          35
           3          28          36          35
           3          28          29          36
           3          29          37          36
           3          29          30          37
           3          30          38          37
           3          30          31          38
           3          31          39          38
           3          32          33          40
           3          33          41          40
           3          33          34          41
           3          34          42          41
           3          34          35          42
           3          35          43          42
           3          35          36          43
           3          36          44          43
           3          36          37          44
           3          37          45          44
           3          37          38          45
           3          38          46          45
           3          38          39          46
           3          39          47          46
           3          40          41          48
           3          41          49          48
           3          41          42          49
           3          42          50          49
           3          42          43          50
           3          43          51          50
           3          43          44          51
           3          44          52          51
           3          44          45          52
           3          45          53          52
           3          45          46          53
           3          46          54          53
           3          46          47          54
           3          47          55          54
           3          48          49          56
           3          49          57          56
           3          49          50          57
           3          50          58          57
           3          50          51          58
           3          51          59          58
           3          51          52          59
           3          52          60          59
           3          52          53          60
           3          53          61          60
           3          53          54          61
           3          54          62          61
           3          54          55          62
           3          55          63          62
           3          56          57          64
           3          57          65          64
           3          57          58          65
           3          58          66          65
           3          58          59          66
           3          59          67          66
           3          59          60          67
           3          60          68          67
           3          60          61          68
           3          61          69          68
           3          61          62          69
           3          62          70          69
           3          62          63          70
           3          63          71          70
           3          64          65          72
           3          65          73          72
           3          65          66          73
           3          66          74          73
           3          66          67          74
           3          67          75          74
           3          67          68          75
           3          68          76          75
           3          68          69          76
           3          69          77          76
           3          69          70          77
           3          70          78          77
           3          70          71          78
           3          71          79          78
           3          72          73          80
           3          73          81          80
           3          73          74          81
           3          74          82          81
           3          74          75          82
           3          75          83          82
           3          75          76          83
           3          76          84          83
           3          76          77          84
           3          77          85          84
           3          77          78          85
           3          78          86          85
           3          78          79          86
           3          79          87          86
CELL_TYPES          140
5
5
5
5
5
5
5
5
5
5
5
5
5
5
5
5
5
5
5
5
5
5
5
5
5
5
5
5
5
5
5
5
5
5
5
5
5
5
5
5
5
5
5
5
5
5
5
5
5
5
5
5
5
5
5
5
5
5
5
5
5
5
5
5
5
5
5
5
5
5
5
5
5
5
5
5
5
5
5
5
5
5
5
5
5
5
5
5
5
5
5
5
5
5
5
5
5
5
5
5
5
5
5
5
5
5
5
5
5
5
5
5
5
5
5
5
5
5
5
5
5
5
5
5
5
5
5
5
5
5
5
5
5
5
5
5
5
5
5
5
POINT_DATA           88
 SCALARS measuredDisp11 float  1                   
LOOKUP_TABLE default
 1.60000E-04
 2.36000E-04
 3.78000E-04
 5.10000E-04
 5.99000E-04
 7.16000E-04
 8.28000E-04
 9.85000E-04
 1.80000E-04
 2.39000E-04
 4.14000E-04
 4.16000E-04
 5.88000E-04
 7.34000E-04
 8.06000E-04
 9.81000E-04
 1.76000E-04
 3.33000E-04
 3.51000E-04
 3.74000E-04
 5.56000E-04
 6.67000E-04
 7.67000E-04
 8.85000E-04
 2.18000E-04
 3.55000E-04
 4.39000E-04
 5.02000E-04
 5.04000E-04
 5.75000E-04
 6.77000E-04
 7.85000E-04
 2.65000E-04
 4.09000E-04
 5.20000E-04
 5.11000E-04
 5.49000E-04
 5.82000E-04
 5.87000E-04
 8.10000E-04
 2.37000E-04
 3.57000E-04
 5.39000E-04
 4.27000E-04
 5.30000E-04
 6.13000E-04
 6.18000E-04
 6.40000E-04
 2.28000E-04
 3.42000E-04
 5.19000E-04
 4.62000E-04
 5.10000E-04
 6.02000E-04
 5.97000E-04
 8.01000E-04
 1.86000E-04
 3.10000E-04
 4.09000E-04
 5.36000E-04
 5.25000E-04
 5.93000E-04
 6.97000E-04
 7.79000E-04
 1.95000E-04
 2.72000E-04
 3.78000E-04
 4.81000E-04
 5.57000E-04
 6.59000E-04
 8.34000E-04
 8.67000E-04
 1.60000E-04
 2.57000E-04
 4.53000E-04
 4.60000E-04
 5.96000E-04
 7.29000E-04
 8.04000E-04
 9.40000E-04
 1.89000E-04
 2.52000E-04
 3.96000E-04
 4.41000E-04
 5.92000E-04
 7.39000E-04
 9.06000E-04
 9.78000E-04
 SCALARS measuredDisp12 float  1                   
LOOKUP_TABLE default
 1.52300E-03
 1.49400E-03
 1.47800E-03
 1.37500E-03
 1.37100E-03
 1.43200E-03
 1.39700E-03
 1.51600E-03
 1.38600E-03
 1.43000E-03
 1.32100E-03
 1.30900E-03
 1.23200E-03
 1.34200E-03
 1.36900E-03
 1.42900E-03
 1.33200E-03
 1.28300E-03
 1.24700E-03
 1.17400E-03
 1.18700E-03
 1.18400E-03
 1.29500E-03
 1.29500E-03
 1.24200E-03
 1.18800E-03
 1.17600E-03
 1.10000E-03
 1.03800E-03
 1.10900E-03
 1.10200E-03
 1.21700E-03
 1.17100E-03
 1.07600E-03
 1.04500E-03
 1.00900E-03
 1.10900E-03
 1.02900E-03
 1.06300E-03
 1.06500E-03
 1.01900E-03
 1.01900E-03
 1.02100E-03
 9.31000E-04
 1.04200E-03
 1.03900E-03
 9.84000E-04
 9.95000E-04
 8.93000E-04
 9.46000E-04
 9.82000E-04
 9.78000E-04
 9.54000E-04
 9.32000E-04
 9.23000E-04
 9.56000E-04
 7.84000E-04
 7.58000E-04
 8.28000E-04
 9.00000E-04
 8.74000E-04
 9.25000E-04
 9.24000E-04
 8.07000E-04
 6.60000E-04
 7.70000E-04
 8.23000E-04
 8.59000E-04
 8.85000E-04
 8.07000E-04
 7.87000E-04
 7.12000E-04
 6.24000E-04
 5.67000E-04
 6.54000E-04
 7.09000E-04
 7.34000E-04
 7.27000E-04
 6.30000E-04
 5.98000E-04
 5.12000E-04
 4.59000E-04
 5.47000E-04
 5.89000E-04
 5.95000E-04
 6.48000E-04
 5.20000E-04
 5.02000E-04
 SCALARS measuredDisp13 float  1                   
LOOKUP_TABLE default
 4.29600E-03
 4.18100E-03
 3.88600E-03
 3.35800E-03
 2.89100E-03
 2.65600E-03
 2.88000E-03
 3.45500E-03
 3.90000E-03
 4.22100E-03
 4.36400E-03
 4.57000E-03
 4.40600E-03
 4.19500E-03
 3.50900E-03
 2.40800E-03
 1.94000E-03
 2.46100E-03
 3.62000E-03
 4.16300E-03
 4.47600E-03
 4.46600E-03
 4.78600E-03
 4.80500E-03
 4.93700E-03
 4.25500E-03
 2.31600E-03
 1.88700E-03
 2.38500E-03
 4.28500E-03
 4.91200E-03
 4.83700E-03
 4.72200E-03
 4.96400E-03
 5.38100E-03
 6.06900E-03
 6.07100E-03
 4.27400E-03
 4.92200E-03
 4.25300E-03
 6.04200E-03
 5.92800E-03
 5.38200E-03
 4.95300E-03
 5.07000E-03
 5.52600E-03
 6.50000E-03
 6.48300E-03
 4.17200E-03
 4.60700E-03
 4.15100E-03
 6.49300E-03
 6.53600E-03
 5.54200E-03
 4.97000E-03
 4.91300E-03
 5.20500E-03
 5.77700E-03
 5.89600E-03
 4.72800E-03
 5.21500E-03
 4.68700E-03
 5.95300E-03
 5.91800E-03
 5.28800E-03
 4.83100E-03
 4.44600E-03
 4.59100E-03
 4.75900E-03
 4.39000E-03
 3.38200E-03
 3.30100E-03
 3.37800E-03
 4.42100E-03
 4.84600E-03
 4.59600E-03
 4.50300E-03
 4.02500E-03
 4.02900E-03
 4.05400E-03
 3.98400E-03
 3.87100E-03
 3.62800E-03
 3.77000E-03
 3.99600E-03
 4.05500E-03
 4.02200E-03
 4.00000E-03
 SCALARS predictedDisp11 float  1                  
LOOKUP_TABLE default
 2.06902E-04
 2.95424E-04
 3.78000E-04
 4.87600E-04
 6.16551E-04
 7.17831E-04
 8.35445E-04
 9.40261E-04
 2.21570E-04
 3.14655E-04
 4.13164E-04
 5.09754E-04
 6.06224E-04
 7.02000E-04
 7.92259E-04
 8.73917E-04
 2.30058E-04
 3.30512E-04
 4.28267E-04
 5.19099E-04
 6.04454E-04
 6.88266E-04
 7.69892E-04
 8.53719E-04
 2.53414E-04
 3.49898E-04
 4.43495E-04
 5.28140E-04
 6.05872E-04
 6.81893E-04
 7.58818E-04
 8.36118E-04
 2.79721E-04
 3.72980E-04
 4.59013E-04
 5.36803E-04
 6.09426E-04
 6.82011E-04
 7.57580E-04
 8.39128E-04
 2.99109E-04
 3.84588E-04
 4.66624E-04
 5.41642E-04
 6.13951E-04
 6.87800E-04
 7.67718E-04
 8.58002E-04
 2.85927E-04
 3.77461E-04
 4.62890E-04
 5.40716E-04
 6.15144E-04
 6.89583E-04
 7.67809E-04
 8.49106E-04
 2.63395E-04
 3.59078E-04
 4.50376E-04
 5.34792E-04
 6.13630E-04
 6.90629E-04
 7.69668E-04
 8.55771E-04
 2.26401E-04
 3.30438E-04
 4.33144E-04
 5.26977E-04
 6.13861E-04
 6.98658E-04
 7.84946E-04
 8.77909E-04
 1.99381E-04
 3.12113E-04
 4.17709E-04
 5.17425E-04
 6.13481E-04
 7.10565E-04
 8.05142E-04
 9.01777E-04
 2.16479E-04
 3.04319E-04
 3.84939E-04
 4.96923E-04
 6.04949E-04
 7.28396E-04
 8.50327E-04
 9.34059E-04
 SCALARS predictedDisp12 float  1                  
LOOKUP_TABLE default
 1.52300E-03
 1.49400E-03
 1.47800E-03
 1.37500E-03
 1.37100E-03
 1.43200E-03
 1.39700E-03
 1.51600E-03
 1.38600E-03
 1.38592E-03
 1.35837E-03
 1.30989E-03
 1.30048E-03
 1.32254E-03
 1.34219E-03
 1.42900E-03
 1.33200E-03
 1.29080E-03
 1.25728E-03
 1.22677E-03
 1.21803E-03
 1.23012E-03
 1.25398E-03
 1.29500E-03
 1.24200E-03
 1.19657E-03
 1.16446E-03
 1.14434E-03
 1.13955E-03
 1.14856E-03
 1.16955E-03
 1.21700E-03
 1.17100E-03
 1.10788E-03
 1.08165E-03
 1.07009E-03
 1.06848E-03
 1.07317E-03
 1.07869E-03
 1.06500E-03
 1.01900E-03
 1.00905E-03
 1.00152E-03
 9.98866E-04
 9.99351E-04
 1.00141E-03
 1.00251E-03
 9.95000E-04
 8.93000E-04
 9.11547E-04
 9.20376E-04
 9.25982E-04
 9.28641E-04
 9.28867E-04
 9.29477E-04
 9.56000E-04
 7.84000E-04
 8.14299E-04
 8.35938E-04
 8.49848E-04
 8.55708E-04
 8.52495E-04
 8.37038E-04
 8.07000E-04
 6.60000E-04
 7.08896E-04
 7.41349E-04
 7.64458E-04
 7.74864E-04
 7.71882E-04
 7.43673E-04
 7.12000E-04
 6.24000E-04
 6.02765E-04
 6.41155E-04
 6.73664E-04
 6.87510E-04
 6.93718E-04
 6.40097E-04
 5.98000E-04
 5.12000E-04
 4.59000E-04
 5.47000E-04
 5.89000E-04
 5.95000E-04
 6.48000E-04
 5.20000E-04
 5.02000E-04
 SCALARS predictedDisp13 float  1                  
LOOKUP_TABLE default
 4.14809E-03
 4.02755E-03
 3.67754E-03
 3.11051E-03
 2.91075E-03
 3.06623E-03
 3.04775E-03
 3.12363E-03
 3.93336E-03
 3.84043E-03
 3.59748E-03
 3.21021E-03
 3.13363E-03
 3.23444E-03
 3.31539E-03
 3.50124E-03
 3.73555E-03
 3.75474E-03
 3.64531E-03
 3.45746E-03
 3.42003E-03
 3.53012E-03
 3.69952E-03
 3.82694E-03
 3.87338E-03
 3.86864E-03
 3.78002E-03
 3.65512E-03
 3.62456E-03
 3.71941E-03
 3.88964E-03
 4.05812E-03
 4.29634E-03
 4.22098E-03
 3.99853E-03
 3.82103E-03
 3.75167E-03
 3.80617E-03
 3.95082E-03
 4.00561E-03
 4.66556E-03
 4.45358E-03
 4.15399E-03
 3.92608E-03
 3.80337E-03
 3.77117E-03
 3.76260E-03
 3.71641E-03
 4.60989E-03
 4.43433E-03
 4.17070E-03
 3.94909E-03
 3.82350E-03
 3.79812E-03
 3.83919E-03
 3.93989E-03
 4.42556E-03
 4.31366E-03
 4.10252E-03
 3.90539E-03
 3.79933E-03
 3.82740E-03
 4.00569E-03
 4.11259E-03
 4.12600E-03
 4.10946E-03
 3.99334E-03
 3.79093E-03
 3.66165E-03
 3.66448E-03
 3.86601E-03
 3.98739E-03
 4.12920E-03
 4.22335E-03
 3.97831E-03
 3.63158E-03
 3.42962E-03
 3.37828E-03
 3.71325E-03
 3.90020E-03
 4.44285E-03
 4.38614E-03
 3.93361E-03
 3.51788E-03
 3.23262E-03
 3.20131E-03
 3.67160E-03
 3.82772E-03
 SCALARS dual11 float  1                           
LOOKUP_TABLE default
-9.85730E-09
-3.74651E-09
 0.00000E+00
 1.05467E-08
 2.60656E-08
 4.22349E-08
 5.15339E-08
 6.03312E-08
-2.96903E-09
 1.47480E-09
 6.55890E-09
 1.45026E-08
 2.70129E-08
 3.62246E-08
 4.22452E-08
 5.05286E-08
 1.90492E-08
 2.09351E-08
 2.12563E-08
 2.23267E-08
 2.29534E-08
 2.21869E-08
 2.07775E-08
 2.36791E-08
 5.02731E-08
 4.53562E-08
 3.94417E-08
 3.11354E-08
 1.92698E-08
 4.36720E-09
-5.42961E-09
-1.45328E-08
 7.70702E-08
 6.58726E-08
 5.41779E-08
 3.72894E-08
 1.39545E-08
-8.31261E-09
-2.69482E-08
-4.44318E-08
 8.73000E-08
 7.21648E-08
 5.74459E-08
 3.71307E-08
 1.13999E-08
-1.19135E-08
-3.16156E-08
-5.26313E-08
 7.15400E-08
 5.93167E-08
 4.81896E-08
 3.14855E-08
 1.35736E-08
-2.27722E-09
-1.73464E-08
-3.42937E-08
 3.37743E-08
 3.08851E-08
 2.68189E-08
 2.17869E-08
 1.84908E-08
 1.54930E-08
 1.40465E-08
 1.20205E-08
-1.41501E-08
-8.73439E-09
-1.45468E-09
 1.00965E-08
 2.46147E-08
 4.11604E-08
 5.65301E-08
 6.96418E-08
-6.06907E-08
-4.27983E-08
-2.46157E-08
 1.64829E-09
 3.36680E-08
 6.49529E-08
 9.09730E-08
 1.12819E-07
-8.05944E-08
-5.78751E-08
-3.33375E-08
 6.72485E-10
 3.98867E-08
 7.57074E-08
 1.02447E-07
 1.25181E-07
 SCALARS dual12 float  1                           
LOOKUP_TABLE default
 0.00000E+00
 0.00000E+00
 0.00000E+00
 0.00000E+00
 0.00000E+00
 0.00000E+00
 0.00000E+00
 0.00000E+00
 0.00000E+00
 2.14092E-09
-2.60189E-08
-4.23482E-08
-5.47177E-08
-2.38773E-08
 7.65637E-10
 0.00000E+00
 0.00000E+00
-1.10880E-08
-3.73262E-08
-7.15206E-08
-7.90516E-08
-5.21651E-08
-1.18564E-08
 0.00000E+00
 0.00000E+00
-1.35185E-08
-3.39401E-08
-6.95441E-08
-7.70747E-08
-5.29699E-08
-3.27396E-08
 0.00000E+00
 0.00000E+00
-9.90785E-09
-2.10547E-08
-3.74445E-08
-1.59894E-08
-1.58917E-08
-1.27221E-08
 0.00000E+00
 0.00000E+00
 1.41033E-08
 2.33217E-08
 2.09858E-08
 4.74746E-08
 3.98497E-08
 1.47674E-08
 0.00000E+00
 0.00000E+00
 3.41267E-08
 6.72497E-08
 8.98201E-08
 9.82453E-08
 7.96886E-08
 4.58435E-08
 0.00000E+00
 0.00000E+00
 2.95137E-08
 8.51139E-08
 1.29956E-07
 1.37529E-07
 1.25114E-07
 8.21994E-08
 0.00000E+00
 0.00000E+00
 4.62902E-08
 1.04135E-07
 1.47714E-07
 1.57325E-07
 1.24042E-07
 7.18880E-08
 0.00000E+00
 0.00000E+00
 1.94881E-08
 5.90640E-08
 9.01616E-08
 9.56581E-08
 7.26042E-08
 3.38298E-08
 0.00000E+00
 0.00000E+00
 0.00000E+00
 0.00000E+00
 0.00000E+00
 0.00000E+00
 0.00000E+00
 0.00000E+00
 0.00000E+00
 SCALARS dual13 float  1                           
LOOKUP_TABLE default
-2.96786E-07
-3.89116E-07
-6.68171E-07
-9.30378E-07
-1.01575E-06
-8.21499E-07
-5.16767E-07
-3.70519E-07
-2.47120E-07
-3.57639E-07
-5.73253E-07
-7.62216E-07
-7.95699E-07
-6.49464E-07
-4.42188E-07
-3.46077E-07
-9.49648E-08
-1.38883E-07
-1.88853E-07
-2.41386E-07
-2.48302E-07
-2.36030E-07
-2.00342E-07
-1.76312E-07
 1.83657E-07
 2.26371E-07
 3.60353E-07
 4.99123E-07
 5.81142E-07
 4.74890E-07
 3.01880E-07
 2.23487E-07
 4.59420E-07
 6.12370E-07
 9.53111E-07
 1.27317E-06
 1.37397E-06
 1.16012E-06
 8.07800E-07
 5.95390E-07
 6.12217E-07
 8.24667E-07
 1.25053E-06
 1.60445E-06
 1.64596E-06
 1.39290E-06
 1.00083E-06
 7.66503E-07
 4.76227E-07
 6.48192E-07
 1.01315E-06
 1.31565E-06
 1.34338E-06
 1.17429E-06
 8.78212E-07
 6.86460E-07
 1.48397E-07
 2.55289E-07
 4.39660E-07
 5.77094E-07
 5.93588E-07
 4.91097E-07
 3.18721E-07
 2.42015E-07
-2.18217E-07
-2.72466E-07
-4.11083E-07
-5.19392E-07
-5.67168E-07
-5.42879E-07
-4.33750E-07
-3.15556E-07
-6.31677E-07
-8.16902E-07
-1.20246E-06
-1.50434E-06
-1.55629E-06
-1.33172E-06
-9.47356E-07
-6.97934E-07
-7.64816E-07
-1.03925E-06
-1.54232E-06
-1.89979E-06
-1.90613E-06
-1.55833E-06
-1.05741E-06
-8.01357E-07
 SCALARS NLP float  1                              
LOOKUP_TABLE default
 0.00000E+00
 0.00000E+00
 0.00000E+00
 0.00000E+00
 0.00000E+00
 0.00000E+00
 0.00000E+00
 0.00000E+00
 0.00000E+00
 0.00000E+00
 0.00000E+00
 0.00000E+00
 0.00000E+00
 0.00000E+00
 0.00000E+00
 0.00000E+00
 0.00000E+00
 0.00000E+00
 0.00000E+00
 0.00000E+00
 0.00000E+00
 0.00000E+00
 0.00000E+00
 0.00000E+00
 0.00000E+00
 0.00000E+00
 0.00000E+00
 0.00000E+00
 0.00000E+00
 0.00000E+00
 0.00000E+00
 0.00000E+00
 0.00000E+00
 0.00000E+00
 0.00000E+00
 0.00000E+00
 0.00000E+00
 0.00000E+00
 0.00000E+00
 0.00000E+00
 0.00000E+00
 0.00000E+00
 0.00000E+00
 0.00000E+00
 0.00000E+00
 0.00000E+00
 0.00000E+00
 0.00000E+00
 0.00000E+00
 0.00000E+00
 0.00000E+00
 0.00000E+00
 0.00000E+00
 0.00000E+00
 0.00000E+00
 0.00000E+00
 0.00000E+00
 0.00000E+00
 0.00000E+00
 0.00000E+00
 0.00000E+00
 0.00000E+00
 0.00000E+00
 0.00000E+00
 0.00000E+00
 0.00000E+00
 0.00000E+00
 0.00000E+00
 0.00000E+00
 0.00000E+00
 0.00000E+00
 0.00000E+00
 0.00000E+00
 0.00000E+00
 0.00000E+00
 0.00000E+00
 0.00000E+00
 0.00000E+00
 0.00000E+00
 0.00000E+00
 0.00000E+00
 0.00000E+00
 0.00000E+00
 0.00000E+00
 0.00000E+00
 0.00000E+00
 0.00000E+00
 0.00000E+00
 SCALARS SM float  1                               
LOOKUP_TABLE default
 1.02516E+00
 1.03597E+00
 1.00000E+00
 1.00000E+00
 1.00000E+00
 1.00000E+00
 1.01444E+00
 1.02677E+00
 1.04088E+00
 1.00000E+00
 1.00000E+00
 1.00000E+00
 1.00000E+00
 1.00000E+00
 1.01289E+00
 1.01994E+00
 1.02684E+00
 1.04954E+00
 1.00676E+00
 1.00671E+00
 1.01035E+00
 1.02067E+00
 1.02674E+00
 1.03932E+00
 1.06844E+00
 1.07627E+00
 1.09150E+00
 1.11728E+00
 1.14383E+00
 1.13026E+00
 1.10492E+00
 1.08997E+00
 1.10113E+00
 1.12843E+00
 1.17089E+00
 1.21883E+00
 1.21833E+00
 1.20983E+00
 1.15484E+00
 1.12853E+00
 1.11861E+00
 1.15516E+00
 1.19535E+00
 1.23579E+00
 1.20709E+00
 1.20649E+00
 1.17744E+00
 1.13423E+00
 1.11712E+00
 1.12588E+00
 1.18680E+00
 1.20608E+00
 1.21148E+00
 1.19516E+00
 1.16040E+00
 1.11245E+00
 1.07564E+00
 1.09464E+00
 1.12400E+00
 1.14090E+00
 1.13773E+00
 1.11633E+00
 1.07715E+00
 1.05026E+00
 1.03984E+00
 1.02120E+00
 1.00000E+00
 1.00000E+00
 1.00000E+00
 1.00000E+00
 1.00000E+00
 1.00000E+00
 1.00000E+00
 1.00000E+00
 1.00000E+00
 1.00000E+00
 1.00000E+00
 1.00000E+00
 1.00000E+00
 1.00000E+00
 1.00000E+00
 1.00000E+00
 1.00000E+00
 1.00000E+00
 1.00000E+00
 1.00000E+00
 1.00000E+00
 1.00000E+00
 SCALARS gradient1 float  1                        
LOOKUP_TABLE default
 0.00000E+00
 0.00000E+00
 0.00000E+00
 0.00000E+00
 0.00000E+00
 0.00000E+00
 0.00000E+00
 0.00000E+00
 0.00000E+00
 0.00000E+00
 0.00000E+00
 0.00000E+00
 0.00000E+00
 0.00000E+00
 0.00000E+00
 0.00000E+00
 0.00000E+00
 0.00000E+00
 0.00000E+00
 0.00000E+00
 0.00000E+00
 0.00000E+00
 0.00000E+00
 0.00000E+00
 0.00000E+00
 0.00000E+00
 0.00000E+00
 0.00000E+00
 0.00000E+00
 0.00000E+00
 0.00000E+00
 0.00000E+00
 0.00000E+00
 0.00000E+00
 0.00000E+00
 0.00000E+00
 0.00000E+00
 0.00000E+00
 0.00000E+00
 0.00000E+00
 0.00000E+00
 0.00000E+00
 0.00000E+00
 0.00000E+00
 0.00000E+00
 0.00000E+00
 0.00000E+00
 0.00000E+00
 0.00000E+00
 0.00000E+00
 0.00000E+00
 0.00000E+00
 0.00000E+00
 0.00000E+00
 0.00000E+00
 0.00000E+00
 0.00000E+00
 0.00000E+00
 0.00000E+00
 0.00000E+00
 0.00000E+00
 0.00000E+00
 0.00000E+00
 0.00000E+00
 0.00000E+00
 0.00000E+00
 0.00000E+00
 0.00000E+00
 0.00000E+00
 0.00000E+00
 0.00000E+00
 0.00000E+00
 0.00000E+00
 0.00000E+00
 0.00000E+00
 0.00000E+00
 0.00000E+00
 0.00000E+00
 0.00000E+00
 0.00000E+00
 0.00000E+00
 0.00000E+00
 0.00000E+00
 0.00000E+00
 0.00000E+00
 0.00000E+00
 0.00000E+00
 0.00000E+00
 SCALARS gradient2 float  1                        
LOOKUP_TABLE default
-1.54176E-12
 3.59973E-12
 1.50945E-12
 4.36094E-12
 5.54042E-12
 3.13240E-12
 1.78156E-12
 2.40280E-12
 4.00601E-12
-3.78869E-12
 3.86740E-12
 5.10424E-12
 5.32612E-12
 1.20248E-12
-1.68191E-13
 6.22820E-14
-2.01337E-12
 5.32634E-12
-1.69498E-12
 1.85418E-12
 1.58688E-12
 1.33671E-12
 9.80805E-13
 1.01909E-12
-1.14417E-12
-1.87385E-12
-2.22361E-12
-3.56920E-12
-5.00192E-12
-4.18801E-12
-2.11391E-12
-2.15190E-12
-2.32080E-12
-3.45673E-12
-5.77507E-12
-7.60829E-12
-6.65423E-12
-4.47476E-12
-6.70482E-12
-3.13861E-12
-3.65702E-12
-2.79604E-12
-7.83697E-12
-3.88229E-12
-1.68761E-11
-8.03750E-12
-4.28964E-12
-4.19253E-12
-1.29876E-12
-6.00219E-12
-3.71350E-12
-9.09834E-12
-1.81782E-12
-6.65916E-12
-5.85062E-12
-3.06895E-12
-1.82810E-12
-1.01435E-12
-3.84384E-12
-4.59718E-12
-4.64719E-12
-3.60153E-12
-1.32198E-12
 5.32543E-15
 4.75769E-13
 1.68759E-12
 4.87448E-13
 3.10967E-12
 4.12761E-12
 4.94402E-12
 4.59218E-12
 1.55536E-12
 1.46497E-12
 7.21765E-12
 1.33132E-11
 1.77015E-11
 1.92870E-11
 1.54254E-11
 1.09261E-11
 3.35281E-12
 2.47675E-12
 5.73467E-12
 8.88147E-12
 1.19477E-11
 1.14199E-11
 7.47177E-12
 4.85494E-12
 6.74328E-13
CELL_DATA         140
SCALARS elemDataMatch  float  1
LOOKUP_TABLE default
 0.00000E+00
 2.02395E-13
 2.02395E-13
 1.76276E-13
 1.45466E-13
 1.49006E-13
 8.21942E-17
 4.94941E-13
 4.88522E-13
 3.89150E-13
 3.94472E-14
 1.68636E-13
 7.48503E-14
 7.48503E-14
 2.02395E-13
 1.72911E-13
 1.77164E-13
 2.41559E-13
 2.00983E-13
 3.63524E-13
 1.16636E-12
 1.64720E-12
 6.47851E-13
 3.53910E-13
 1.67914E-13
 2.60363E-13
 3.64645E-13
 1.75259E-13
 6.34116E-15
 2.09547E-14
 4.94944E-14
 1.90471E-14
 2.95688E-13
 6.35755E-13
 1.15273E-12
 2.31981E-12
 2.36108E-12
 2.55506E-12
 3.83758E-13
 6.34247E-13
 3.61924E-13
 4.75276E-13
 7.64910E-15
 1.41951E-13
 1.07205E-13
 2.98993E-13
 4.30536E-13
 1.41819E-12
 3.06520E-12
 1.59378E-12
 1.23113E-12
 3.65892E-13
 1.61270E-12
 1.19755E-12
 6.11306E-13
 2.56399E-14
 1.05848E-13
 8.31273E-14
 3.06805E-13
 9.76049E-14
 6.03153E-13
 1.07827E-12
 9.27131E-13
 4.32323E-13
 3.61070E-13
 3.37685E-13
 2.13870E-13
 1.04844E-13
 9.15751E-14
 3.56863E-14
 1.03033E-14
 1.69645E-13
 2.99246E-13
 9.74841E-13
 4.66555E-13
 6.87743E-13
 5.12965E-13
 1.01950E-12
 7.82565E-13
 3.35012E-13
 1.17632E-13
 4.54118E-14
 5.25445E-14
 4.37009E-15
 1.23648E-13
 2.51766E-13
 5.07108E-13
 3.66510E-13
 9.23952E-13
 7.37697E-13
 1.15249E-12
 6.40197E-13
 1.65430E-13
 7.51254E-13
 5.25621E-13
 1.88891E-12
 7.33445E-13
 7.87748E-13
 3.30169E-13
 3.60750E-13
 3.63341E-13
 1.49163E-12
 1.28061E-12
 3.61209E-12
 1.99750E-12
 3.70408E-12
 3.02580E-12
 3.43953E-12
 2.70393E-12
 1.98085E-12
 1.37578E-12
 1.95547E-13
 3.88927E-13
 2.94526E-13
 1.20451E-12
 6.02106E-13
 2.68258E-12
 1.60009E-12
 4.16270E-12
 2.72863E-12
 2.72346E-12
 9.21975E-13
 8.69851E-13
 3.91187E-13
 1.60596E-13
 1.06199E-14
 1.33242E-13
 1.33242E-13
 1.02574E-13
 1.71881E-14
 1.94538E-13
 1.30068E-13
 5.26328E-13
 2.25137E-13
 5.01699E-13
 1.15386E-13
 9.10003E-14
 1.06199E-14
 1.06199E-14
 0.00000E+00
SCALARS elemRegul  float  1
LOOKUP_TABLE default
 2.38390E-14
 6.80600E-14
 6.35845E-14
 3.12500E-16
 3.12500E-16
 3.12500E-16
 3.12500E-16
 3.12500E-16
 3.12500E-16
 3.12500E-16
 1.80547E-14
 1.62307E-14
 1.55391E-14
 1.22774E-14
 5.40220E-14
 6.81073E-14
 6.19197E-14
 5.41317E-14
 8.45773E-15
 8.39287E-15
 8.39261E-15
 1.37172E-14
 1.29406E-14
 2.88822E-14
 3.04516E-14
 1.89004E-14
 1.94276E-14
 2.88785E-14
 5.92312E-14
 3.48259E-14
 6.30535E-14
 1.07615E-13
 1.05919E-13
 1.41928E-13
 1.38294E-13
 1.70113E-13
 1.67344E-13
 1.38037E-13
 1.37202E-13
 1.02738E-13
 9.89894E-14
 6.60175E-14
 4.20179E-14
 7.35841E-14
 6.79154E-14
 1.12541E-13
 1.04343E-13
 1.40364E-13
 1.31194E-13
 9.31322E-14
 9.46604E-14
 1.00021E-13
 1.04378E-13
 9.28334E-14
 6.51366E-14
 5.83520E-14
 4.05171E-14
 5.66129E-14
 6.27216E-14
 5.88189E-14
 6.72797E-14
 5.48196E-14
 2.12205E-14
 3.85421E-14
 1.76233E-14
 4.24868E-15
 6.88633E-14
 4.60091E-14
 4.33601E-14
 5.44833E-14
 4.57341E-14
 3.82068E-14
 6.21604E-14
 7.68918E-14
 5.16705E-14
 4.42827E-14
 5.16527E-14
 8.71536E-15
 5.55376E-15
 2.48387E-14
 3.89762E-14
 4.83933E-14
 5.80645E-14
 6.58348E-14
 5.29872E-14
 4.57062E-14
 8.55763E-14
 8.66522E-14
 8.21095E-14
 8.41666E-14
 8.17538E-14
 9.22808E-14
 9.44260E-14