# vtk DataFile Version 2.0
Output of NLACE
ASCII
DATASET UNSTRUCTURED_GRID
POINTS           88 FLOAT
 6.000000E-01  2.500000E-01  0.000000E+00
 6.500000E-01  2.500000E-01  0.000000E+00
 7.000000E-01  2.500000E-01  0.000000E+00
 7.500000E-01  2.500000E-01  0.000000E+00
 8.000000E-01  2.500000E-01  0.000000E+00
 8.500000E-01  2.500000E-01  0.000000E+00
 9.000000E-01  2.500000E-01  0.000000E+00
 9.500000E-01  2.500000E-01  0.000000E+00
 6.000000E-01  3.000000E-01  0.000000E+00
 6.500000E-01  3.000000E-01  0.000000E+00
 7.000000E-01  3.000000E-01  0.000000E+00
 7.500000E-01  3.000000E-01  0.000000E+00
 8.000000E-01  3.000000E-01  0.000000E+00
 8.500000E-01  3.000000E-01  0.000000E+00
 9.000000E-01  3.000000E-01  0.000000E+00
 9.500000E-01  3.000000E-01  0.000000E+00
 6.000000E-01  3.500000E-01  0.000000E+00
 6.500000E-01  3.500000E-01  0.000000E+00
 7.000000E-01  3.500000E-01  0.000000E+00
 7.500000E-01  3.500000E-01  0.000000E+00
 8.000000E-01  3.500000E-01  0.000000E+00
 8.500000E-01  3.500000E-01  0.000000E+00
 9.000000E-01  3.500000E-01  0.000000E+00
 9.500000E-01  3.500000E-01  0.000000E+00
 6.000000E-01  4.000000E-01  0.000000E+00
 6.500000E-01  4.000000E-01  0.000000E+00
 7.000000E-01  4.000000E-01  0.000000E+00
 7.500000E-01  4.000000E-01  0.000000E+00
 8.000000E-01  4.000000E-01  0.000000E+00
 8.500000E-01  4.000000E-01  0.000000E+00
 9.000000E-01  4.000000E-01  0.000000E+00
 9.500000E-01  4.000000E-01  0.000000E+00
 6.000000E-01  4.500000E-01  0.000000E+00
 6.500000E-01  4.500000E-01  0.000000E+00
 7.000000E-01  4.500000E-01  0.000000E+00
 7.500000E-01  4.500000E-01  0.000000E+00
 8.000000E-01  4.500000E-01  0.000000E+00
 8.500000E-01  4.500000E-01  0.000000E+00
 9.000000E-01  4.500000E-01  0.000000E+00
 9.500000E-01  4.500000E-01  0.000000E+00
 6.000000E-01  5.000000E-01  0.000000E+00
 6.500000E-01  5.000000E-01  0.000000E+00
 7.000000E-01  5.000000E-01  0.000000E+00
 7.500000E-01  5.000000E-01  0.000000E+00
 8.000000E-01  5.000000E-01  0.000000E+00
 8.500000E-01  5.000000E-01  0.000000E+00
 9.000000E-01  5.000000E-01  0.000000E+00
 9.500000E-01  5.000000E-01  0.000000E+00
 6.000000E-01  5.500000E-01  0.000000E+00
 6.500000E-01  5.500000E-01  0.000000E+00
 7.000000E-01  5.500000E-01  0.000000E+00
 7.500000E-01  5.500000E-01  0.000000E+00
 8.000000E-01  5.500000E-01  0.000000E+00
 8.500000E-01  5.500000E-01  0.000000E+00
 9.000000E-01  5.500000E-01  0.000000E+00
 9.500000E-01  5.500000E-01  0.000000E+00
 6.000000E-01  6.000000E-01  0.000000E+00
 6.500000E-01  6.000000E-01  0.000000E+00
 7.000000E-01  6.000000E-01  0.000000E+00
 7.500000E-01  6.000000E-01  0.000000E+00
 8.000000E-01  6.000000E-01  0.000000E+00
 8.500000E-01  6.000000E-01  0.000000E+00
 9.000000E-01  6.000000E-01  0.000000E+00
 9.500000E-01  6.000000E-01  0.000000E+00
 6.000000E-01  6.500000E-01  0.000000E+00
 6.500000E-01  6.500000E-01  0.000000E+00
 7.000000E-01  6.500000E-01  0.000000E+00
 7.500000E-01  6.500000E-01  0.000000E+00
 8.000000E-01  6.500000E-01  0.000000E+00
 8.500000E-01  6.500000E-01  0.000000E+00
 9.000000E-01  6.500000E-01  0.000000E+00
 9.500000E-01  6.500000E-01  0.000000E+00
 6.000000E-01  7.000000E-01  0.000000E+00
 6.500000E-01  7.000000E-01  0.000000E+00
 7.000000E-01  7.000000E-01  0.000000E+00
 7.500000E-01  7.000000E-01  0.000000E+00
 8.000000E-01  7.000000E-01  0.000000E+00
 8.500000E-01  7.000000E-01  0.000000E+00
 9.000000E-01  7.000000E-01  0.000000E+00
 9.500000E-01  7.000000E-01  0.000000E+00
 6.000000E-01  7.500000E-01  0.000000E+00
 6.500000E-01  7.500000E-01  0.000000E+00
 7.000000E-01  7.500000E-01  0.000000E+00
 7.500000E-01  7.500000E-01  0.000000E+00
 8.000000E-01  7.500000E-01  0.000000E+00
 8.500000E-01  7.500000E-01  0.000000E+00
 9.000000E-01  7.500000E-01  0.000000E+00
 9.500000E-01  7.500000E-01  0.000000E+00
CELLS          140         560
           3           0           1           8
           3           1           9           8
           3           1           2           9
           3           2          10           9
           3           2           3          10
           3           3          11          10
           3           3           4          11
           3           4          12          11
           3           4           5          12
           3           5          13          12
           3           5           6          13
           3           6          14          13
           3           6           7          14
           3           7          15          14
           3           8           9          16
           3           9          17          16
           3           9          10          17
           3          10          18          17
           3          10          11          18
           3          11          19          18
           3          11          12          19
           3          12          20          19
           3          12          13          20
           3          13          21          20
           3          13          14          21
           3          14          22          21
           3          14          15          22
           3          15          23          22
           3          16          17          24
           3          17          25          24
           3          17          18          25
           3          18          26          25
           3          18          19          26
           3          19          27          26
           3          19          20          27
           3          20          28          27
           3          20          21          28
           3          21          29          28
           3          21          22          29
           3          22          30          29
           3          22          23          30
           3          23          31          30
           3          24          25          32
           3          25          33          32
           3          25          26          33
           3          26          34          33
           3          26          27          34
           3          27          35          34
           3          27          28          35
           3          28          36          35
           3          28          29          36
           3          29          37          36
           3          29          30          37
           3          30          38          37
           3          30          31          38
           3          31          39          38
           3          32          33          40
           3          33          41          40
           3          33          34          41
           3          34          42          41
           3          34          35          42
           3          35          43          42
           3          35          36          43
           3          36          44          43
           3          36          37          44
           3          37          45          44
           3          37          38          45
           3          38          46          45
           3          38          39          46
           3          39          47          46
           3          40          41          48
           3          41          49          48
           3          41          42          49
           3          42          50          49
           3          42          43          50
           3          43          51          50
           3          43          44          51
           3          44          52          51
           3          44          45          52
           3          45          53          52
           3          45          46          53
           3          46          54          53
           3          46          47          54
           3          47          55          54
           3          48          49          56
           3          49          57          56
           3          49          50          57
           3          50          58          57
           3          50          51          58
           3          51          59          58
           3          51          52          59
           3          52          60          59
           3          52          53          60
           3          53          61          60
           3          53          54          61
           3          54          62          61
           3          54          55          62
           3          55          63          62
           3          56          57          64
           3          57          65          64
           3          57          58          65
           3          58          66          65
           3          58          59          66
           3          59          67          66
           3          59          60          67
           3          60          68          67
           3          60          61          68
           3          61          69          68
           3          61          62          69
           3          62          70          69
           3          62          63          70
           3          63          71          70
           3          64          65          72
           3          65          73          72
           3          65          66          73
           3          66          74          73
           3          66          67          74
           3          67          75          74
           3          67          68          75
           3          68          76          75
           3          68          69          76
           3          69          77          76
           3          69          70          77
           3          70          78          77
           3          70          71          78
           3          71          79          78
           3          72          73          80
           3          73          81          80
           3          73          74          81
           3          74          82          81
           3          74          75          82
           3          75          83          82
           3          75          76          83
           3          76          84          83
           3          76          77          84
           3          77          85          84
           3          77          78          85
           3          78          86          85
           3          78          79          86
           3          79          87          86
CELL_TYPES          140
5
5
5
5
5
5
5
5
5
5
5
5
5
5
5
5
5
5
5
5
5
5
5
5
5
5
5
5
5
5
5
5
5
5
5
5
5
5
5
5
5
5
5
5
5
5
5
5
5
5
5
5
5
5
5
5
5
5
5
5
5
5
5
5
5
5
5
5
5
5
5
5
5
5
5
5
5
5
5
5
5
5
5
5
5
5
5
5
5
5
5
5
5
5
5
5
5
5
5
5
5
5
5
5
5
5
5
5
5
5
5
5
5
5
5
5
5
5
5
5
5
5
5
5
5
5
5
5
5
5
5
5
5
5
5
5
5
5
5
5
POINT_DATA           88
 SCALARS measuredDisp11 float  1                   
LOOKUP_TABLE default
 1.60000E-04
 2.36000E-04
 3.78000E-04
 5.10000E-04
 5.99000E-04
 7.16000E-04
 8.28000E-04
 9.85000E-04
 1.80000E-04
 2.39000E-04
 4.14000E-04
 4.16000E-04
 5.88000E-04
 7.34000E-04
 8.06000E-04
 9.81000E-04
 1.76000E-04
 3.33000E-04
 3.51000E-04
 3.74000E-04
 5.56000E-04
 6.67000E-04
 7.67000E-04
 8.85000E-04
 2.18000E-04
 3.55000E-04
 4.39000E-04
 5.02000E-04
 5.04000E-04
 5.75000E-04
 6.77000E-04
 7.85000E-04
 2.65000E-04
 4.09000E-04
 5.20000E-04
 5.11000E-04
 5.49000E-04
 5.82000E-04
 5.87000E-04
 8.10000E-04
 2.37000E-04
 3.57000E-04
 5.39000E-04
 4.27000E-04
 5.30000E-04
 6.13000E-04
 6.18000E-04
 6.40000E-04
 2.28000E-04
 3.42000E-04
 5.19000E-04
 4.62000E-04
 5.10000E-04
 6.02000E-04
 5.97000E-04
 8.01000E-04
 1.86000E-04
 3.10000E-04
 4.09000E-04
 5.36000E-04
 5.25000E-04
 5.93000E-04
 6.97000E-04
 7.79000E-04
 1.95000E-04
 2.72000E-04
 3.78000E-04
 4.81000E-04
 5.57000E-04
 6.59000E-04
 8.34000E-04
 8.67000E-04
 1.60000E-04
 2.57000E-04
 4.53000E-04
 4.60000E-04
 5.96000E-04
 7.29000E-04
 8.04000E-04
 9.40000E-04
 1.89000E-04
 2.52000E-04
 3.96000E-04
 4.41000E-04
 5.92000E-04
 7.39000E-04
 9.06000E-04
 9.78000E-04
 SCALARS measuredDisp12 float  1                   
LOOKUP_TABLE default
 1.52300E-03
 1.49400E-03
 1.47800E-03
 1.37500E-03
 1.37100E-03
 1.43200E-03
 1.39700E-03
 1.51600E-03
 1.38600E-03
 1.43000E-03
 1.32100E-03
 1.30900E-03
 1.23200E-03
 1.34200E-03
 1.36900E-03
 1.42900E-03
 1.33200E-03
 1.28300E-03
 1.24700E-03
 1.17400E-03
 1.18700E-03
 1.18400E-03
 1.29500E-03
 1.29500E-03
 1.24200E-03
 1.18800E-03
 1.17600E-03
 1.10000E-03
 1.03800E-03
 1.10900E-03
 1.10200E-03
 1.21700E-03
 1.17100E-03
 1.07600E-03
 1.04500E-03
 1.00900E-03
 1.10900E-03
 1.02900E-03
 1.06300E-03
 1.06500E-03
 1.01900E-03
 1.01900E-03
 1.02100E-03
 9.31000E-04
 1.04200E-03
 1.03900E-03
 9.84000E-04
 9.95000E-04
 8.93000E-04
 9.46000E-04
 9.82000E-04
 9.78000E-04
 9.54000E-04
 9.32000E-04
 9.23000E-04
 9.56000E-04
 7.84000E-04
 7.58000E-04
 8.28000E-04
 9.00000E-04
 8.74000E-04
 9.25000E-04
 9.24000E-04
 8.07000E-04
 6.60000E-04
 7.70000E-04
 8.23000E-04
 8.59000E-04
 8.85000E-04
 8.07000E-04
 7.87000E-04
 7.12000E-04
 6.24000E-04
 5.67000E-04
 6.54000E-04
 7.09000E-04
 7.34000E-04
 7.27000E-04
 6.30000E-04
 5.98000E-04
 5.12000E-04
 4.59000E-04
 5.47000E-04
 5.89000E-04
 5.95000E-04
 6.48000E-04
 5.20000E-04
 5.02000E-04
 SCALARS measuredDisp13 float  1                   
LOOKUP_TABLE default
 4.29600E-03
 4.18100E-03
 3.88600E-03
 3.35800E-03
 2.89100E-03
 2.65600E-03
 2.88000E-03
 3.45500E-03
 3.90000E-03
 4.22100E-03
 4.36400E-03
 4.57000E-03
 4.40600E-03
 4.19500E-03
 3.50900E-03
 2.40800E-03
 1.94000E-03
 2.46100E-03
 3.62000E-03
 4.16300E-03
 4.47600E-03
 4.46600E-03
 4.78600E-03
 4.80500E-03
 4.93700E-03
 4.25500E-03
 2.31600E-03
 1.88700E-03
 2.38500E-03
 4.28500E-03
 4.91200E-03
 4.83700E-03
 4.72200E-03
 4.96400E-03
 5.38100E-03
 6.06900E-03
 6.07100E-03
 4.27400E-03
 4.92200E-03
 4.25300E-03
 6.04200E-03
 5.92800E-03
 5.38200E-03
 4.95300E-03
 5.07000E-03
 5.52600E-03
 6.50000E-03
 6.48300E-03
 4.17200E-03
 4.60700E-03
 4.15100E-03
 6.49300E-03
 6.53600E-03
 5.54200E-03
 4.97000E-03
 4.91300E-03
 5.20500E-03
 5.77700E-03
 5.89600E-03
 4.72800E-03
 5.21500E-03
 4.68700E-03
 5.95300E-03
 5.91800E-03
 5.28800E-03
 4.83100E-03
 4.44600E-03
 4.59100E-03
 4.75900E-03
 4.39000E-03
 3.38200E-03
 3.30100E-03
 3.37800E-03
 4.42100E-03
 4.84600E-03
 4.59600E-03
 4.50300E-03
 4.02500E-03
 4.02900E-03
 4.05400E-03
 3.98400E-03
 3.87100E-03
 3.62800E-03
 3.77000E-03
 3.99600E-03
 4.05500E-03
 4.02200E-03
 4.00000E-03
 SCALARS predictedDisp11 float  1                  
LOOKUP_TABLE default
 1.98627E-04
 2.92432E-04
 3.78000E-04
 4.90186E-04
 6.22575E-04
 7.27504E-04
 8.48612E-04
 9.58757E-04
 2.15270E-04
 3.12988E-04
 4.13913E-04
 5.13142E-04
 6.12075E-04
 7.10432E-04
 8.04234E-04
 8.91357E-04
 2.28806E-04
 3.32529E-04
 4.32564E-04
 5.24325E-04
 6.09530E-04
 6.93782E-04
 7.77644E-04
 8.65413E-04
 2.61293E-04
 3.58541E-04
 4.52272E-04
 5.35318E-04
 6.10638E-04
 6.83610E-04
 7.59349E-04
 8.35738E-04
 2.96508E-04
 3.87663E-04
 4.71000E-04
 5.45323E-04
 6.12686E-04
 6.80127E-04
 7.51961E-04
 8.29582E-04
 3.19510E-04
 4.01705E-04
 4.79913E-04
 5.49713E-04
 6.15836E-04
 6.84517E-04
 7.59883E-04
 8.45416E-04
 3.03520E-04
 3.92615E-04
 4.74512E-04
 5.47673E-04
 6.17363E-04
 6.87575E-04
 7.62183E-04
 8.40496E-04
 2.72474E-04
 3.68400E-04
 4.58526E-04
 5.40545E-04
 6.16583E-04
 6.91603E-04
 7.69702E-04
 8.57610E-04
 2.24765E-04
 3.32404E-04
 4.36766E-04
 5.31065E-04
 6.18542E-04
 7.04430E-04
 7.92913E-04
 8.89519E-04
 1.91828E-04
 3.08968E-04
 4.17807E-04
 5.20622E-04
 6.19791E-04
 7.20014E-04
 8.17851E-04
 9.18314E-04
 2.07183E-04
 2.99434E-04
 3.84007E-04
 4.99937E-04
 6.11869E-04
 7.39039E-04
 8.64429E-04
 9.51839E-04
 SCALARS predictedDisp12 float  1                  
LOOKUP_TABLE default
 1.52300E-03
 1.49400E-03
 1.47800E-03
 1.37500E-03
 1.37100E-03
 1.43200E-03
 1.39700E-03
 1.51600E-03
 1.38600E-03
 1.38313E-03
 1.35468E-03
 1.30497E-03
 1.29523E-03
 1.31842E-03
 1.33965E-03
 1.42900E-03
 1.33200E-03
 1.28554E-03
 1.24903E-03
 1.21708E-03
 1.20793E-03
 1.22067E-03
 1.24718E-03
 1.29500E-03
 1.24200E-03
 1.18980E-03
 1.15482E-03
 1.13404E-03
 1.12870E-03
 1.13832E-03
 1.16188E-03
 1.21700E-03
 1.17100E-03
 1.10337E-03
 1.07562E-03
 1.06357E-03
 1.06248E-03
 1.06774E-03
 1.07446E-03
 1.06500E-03
 1.01900E-03
 1.00869E-03
 1.00101E-03
 9.99066E-04
 1.00027E-03
 1.00201E-03
 1.00280E-03
 9.95000E-04
 8.93000E-04
 9.15366E-04
 9.26113E-04
 9.32650E-04
 9.35368E-04
 9.35015E-04
 9.34207E-04
 9.56000E-04
 7.84000E-04
 8.21078E-04
 8.45631E-04
 8.60766E-04
 8.66879E-04
 8.62768E-04
 8.44839E-04
 8.07000E-04
 6.60000E-04
 7.14832E-04
 7.50637E-04
 7.75263E-04
 7.85477E-04
 7.80754E-04
 7.49168E-04
 7.12000E-04
 6.24000E-04
 6.05088E-04
 6.45473E-04
 6.78814E-04
 6.92609E-04
 6.97970E-04
 6.42659E-04
 5.98000E-04
 5.12000E-04
 4.59000E-04
 5.47000E-04
 5.89000E-04
 5.95000E-04
 6.48000E-04
 5.20000E-04
 5.02000E-04
 SCALARS predictedDisp13 float  1                  
LOOKUP_TABLE default
 4.21079E-03
 4.12514E-03
 3.84144E-03
 3.31524E-03
 3.12515E-03
 3.25345E-03
 3.18168E-03
 3.21686E-03
 4.00533E-03
 3.94896E-03
 3.76388E-03
 3.41506E-03
 3.34658E-03
 3.42190E-03
 3.45168E-03
 3.60271E-03
 3.82198E-03
 3.86958E-03
 3.80325E-03
 3.64553E-03
 3.61637E-03
 3.70676E-03
 3.83596E-03
 3.94481E-03
 3.97506E-03
 3.98202E-03
 3.91099E-03
 3.80376E-03
 3.78126E-03
 3.87052E-03
 4.03454E-03
 4.21547E-03
 4.43224E-03
 4.34964E-03
 4.11449E-03
 3.93685E-03
 3.87224E-03
 3.93562E-03
 4.10761E-03
 4.18707E-03
 4.84118E-03
 4.60384E-03
 4.27654E-03
 4.03859E-03
 3.91444E-03
 3.88862E-03
 3.90208E-03
 3.87239E-03
 4.78048E-03
 4.58496E-03
 4.30760E-03
 4.08184E-03
 3.95214E-03
 3.92671E-03
 3.98006E-03
 4.09341E-03
 4.57216E-03
 4.46021E-03
 4.26383E-03
 4.07613E-03
 3.96720E-03
 3.98697E-03
 4.15678E-03
 4.25101E-03
 4.25409E-03
 4.25829E-03
 4.18119E-03
 4.00093E-03
 3.86931E-03
 3.84933E-03
 4.01534E-03
 4.11203E-03
 4.24976E-03
 4.37322E-03
 4.17640E-03
 3.85743E-03
 3.65170E-03
 3.56803E-03
 3.85642E-03
 4.01696E-03
 4.55551E-03
 4.53416E-03
 4.13058E-03
 3.74252E-03
 3.45237E-03
 3.38646E-03
 3.80842E-03
 3.94223E-03
 SCALARS dual11 float  1                           
LOOKUP_TABLE default
-2.38026E-09
 1.98969E-10
 0.00000E+00
 5.38727E-09
 1.50460E-08
 2.54073E-08
 2.94814E-08
 3.27922E-08
 2.27050E-09
 3.28743E-09
 4.79001E-09
 8.34143E-09
 1.60657E-08
 2.06885E-08
 2.28282E-08
 2.72341E-08
 1.62692E-08
 1.64675E-08
 1.49384E-08
 1.40834E-08
 1.30342E-08
 1.09083E-08
 8.27550E-09
 9.91794E-09
 3.66053E-08
 3.25328E-08
 2.73394E-08
 2.05023E-08
 1.09703E-08
-1.15567E-09
-9.02698E-09
-1.60797E-08
 5.35413E-08
 4.57161E-08
 3.73003E-08
 2.48221E-08
 7.52970E-09
-9.02524E-09
-2.31209E-08
-3.60812E-08
 5.94175E-08
 4.89487E-08
 3.88110E-08
 2.44681E-08
 6.06745E-09
-1.08269E-08
-2.53330E-08
-4.10962E-08
 4.71637E-08
 3.89616E-08
 3.18364E-08
 2.02007E-08
 7.74416E-09
-3.30207E-09
-1.43501E-08
-2.74494E-08
 1.92646E-08
 1.79253E-08
 1.54799E-08
 1.24416E-08
 1.10847E-08
 9.65230E-09
 9.11242E-09
 7.51490E-09
-1.67084E-08
-1.26841E-08
-6.77902E-09
 2.90191E-09
 1.51548E-08
 2.91817E-08
 4.20772E-08
 5.27118E-08
-5.33224E-08
-3.94525E-08
-2.53793E-08
-4.16717E-09
 2.22371E-08
 4.81298E-08
 6.95836E-08
 8.70840E-08
-6.87827E-08
-5.17221E-08
-3.26196E-08
-4.98449E-09
 2.74001E-08
 5.69195E-08
 7.86811E-08
 9.69361E-08
 SCALARS dual12 float  1                           
LOOKUP_TABLE default
 0.00000E+00
 0.00000E+00
 0.00000E+00
 0.00000E+00
 0.00000E+00
 0.00000E+00
 0.00000E+00
 0.00000E+00
 0.00000E+00
 8.00016E-09
-1.53506E-08
-2.87502E-08
-4.06635E-08
-1.22892E-08
 7.54812E-09
 0.00000E+00
 0.00000E+00
-9.68840E-10
-1.89260E-08
-4.79539E-08
-5.47090E-08
-3.22419E-08
-3.07520E-10
 0.00000E+00
 0.00000E+00
-2.46459E-09
-1.44275E-08
-4.42561E-08
-5.08408E-08
-3.19831E-08
-2.03408E-08
 0.00000E+00
 0.00000E+00
-2.15962E-09
-7.88085E-09
-2.07153E-08
-2.25643E-09
-4.19352E-09
-5.59731E-09
 0.00000E+00
 0.00000E+00
 1.44685E-08
 2.32044E-08
 2.07702E-08
 4.30517E-08
 3.62744E-08
 1.35395E-08
 0.00000E+00
 0.00000E+00
 2.70904E-08
 5.34308E-08
 7.14116E-08
 7.84503E-08
 6.34535E-08
 3.63475E-08
 0.00000E+00
 0.00000E+00
 1.87862E-08
 6.42825E-08
 1.02209E-07
 1.08722E-07
 1.00455E-07
 6.76948E-08
 0.00000E+00
 0.00000E+00
 3.52677E-08
 8.36501E-08
 1.21459E-07
 1.30503E-07
 1.02140E-07
 5.96197E-08
 0.00000E+00
 0.00000E+00
 1.29451E-08
 4.71500E-08
 7.51195E-08
 8.04232E-08
 6.02436E-08
 2.70535E-08
 0.00000E+00
 0.00000E+00
 0.00000E+00
 0.00000E+00
 0.00000E+00
 0.00000E+00
 0.00000E+00
 0.00000E+00
 0.00000E+00
 SCALARS dual13 float  1                           
LOOKUP_TABLE default
-1.57206E-07
-2.05045E-07
-4.01262E-07
-6.03608E-07
-6.75708E-07
-5.21217E-07
-2.89921E-07
-1.96374E-07
-1.27014E-07
-1.96013E-07
-3.44686E-07
-4.86807E-07
-5.13617E-07
-4.04324E-07
-2.62828E-07
-2.05816E-07
-4.41903E-08
-6.62292E-08
-8.68134E-08
-1.18150E-07
-1.23934E-07
-1.33588E-07
-1.29706E-07
-1.19182E-07
 1.37891E-07
 1.72921E-07
 2.88339E-07
 4.18873E-07
 4.94023E-07
 3.86884E-07
 2.30731E-07
 1.72640E-07
 3.32717E-07
 4.50435E-07
 7.33670E-07
 1.02352E-06
 1.12632E-06
 9.36076E-07
 6.38396E-07
 4.67993E-07
 4.54746E-07
 6.19126E-07
 9.75214E-07
 1.29952E-06
 1.34896E-06
 1.13292E-06
 8.08513E-07
 6.18842E-07
 3.50698E-07
 4.81304E-07
 7.95095E-07
 1.08319E-06
 1.12455E-06
 9.87790E-07
 7.41559E-07
 5.77999E-07
 1.05791E-07
 1.96658E-07
 3.72890E-07
 5.17185E-07
 5.44158E-07
 4.50406E-07
 2.88948E-07
 2.17009E-07
-1.60585E-07
-1.99254E-07
-3.00422E-07
-3.79207E-07
-4.18342E-07
-4.09745E-07
-3.34296E-07
-2.43005E-07
-4.89318E-07
-6.34294E-07
-9.46445E-07
-1.19800E-06
-1.24738E-06
-1.06948E-06
-7.60025E-07
-5.57020E-07
-5.89103E-07
-8.09237E-07
-1.22843E-06
-1.53344E-06
-1.54452E-06
-1.25857E-06
-8.49360E-07
-6.41889E-07
 SCALARS NLP float  1                              
LOOKUP_TABLE default
 0.00000E+00
 0.00000E+00
 0.00000E+00
 0.00000E+00
 0.00000E+00
 0.00000E+00
 0.00000E+00
 0.00000E+00
 0.00000E+00
 0.00000E+00
 0.00000E+00
 0.00000E+00
 0.00000E+00
 0.00000E+00
 0.00000E+00
 0.00000E+00
 0.00000E+00
 0.00000E+00
 0.00000E+00
 0.00000E+00
 0.00000E+00
 0.00000E+00
 0.00000E+00
 0.00000E+00
 0.00000E+00
 0.00000E+00
 0.00000E+00
 0.00000E+00
 0.00000E+00
 0.00000E+00
 0.00000E+00
 0.00000E+00
 0.00000E+00
 0.00000E+00
 0.00000E+00
 0.00000E+00
 0.00000E+00
 0.00000E+00
 0.00000E+00
 0.00000E+00
 0.00000E+00
 0.00000E+00
 0.00000E+00
 0.00000E+00
 0.00000E+00
 0.00000E+00
 0.00000E+00
 0.00000E+00
 0.00000E+00
 0.00000E+00
 0.00000E+00
 0.00000E+00
 0.00000E+00
 0.00000E+00
 0.00000E+00
 0.00000E+00
 0.00000E+00
 0.00000E+00
 0.00000E+00
 0.00000E+00
 0.00000E+00
 0.00000E+00
 0.00000E+00
 0.00000E+00
 0.00000E+00
 0.00000E+00
 0.00000E+00
 0.00000E+00
 0.00000E+00
 0.00000E+00
 0.00000E+00
 0.00000E+00
 0.00000E+00
 0.00000E+00
 0.00000E+00
 0.00000E+00
 0.00000E+00
 0.00000E+00
 0.00000E+00
 0.00000E+00
 0.00000E+00
 0.00000E+00
 0.00000E+00
 0.00000E+00
 0.00000E+00
 0.00000E+00
 0.00000E+00
 0.00000E+00
 SCALARS SM float  1                               
LOOKUP_TABLE default
 1.00615E+00
 1.00000E+00
 1.00000E+00
 1.00000E+00
 1.00000E+00
 1.00000E+00
 1.02282E+00
 1.00258E+00
 1.01583E+00
 1.01010E+00
 1.00944E+00
 1.00000E+00
 1.00000E+00
 1.00000E+00
 1.00000E+00
 1.00000E+00
 1.00939E+00
 1.03007E+00
 1.00000E+00
 1.03128E+00
 1.03002E+00
 1.00123E+00
 1.00620E+00
 1.01347E+00
 1.09655E+00
 1.11537E+00
 1.14836E+00
 1.20678E+00
 1.26676E+00
 1.23031E+00
 1.16778E+00
 1.13738E+00
 1.16141E+00
 1.21027E+00
 1.30705E+00
 1.35162E+00
 1.44248E+00
 1.35542E+00
 1.28089E+00
 1.21989E+00
 1.19976E+00
 1.24772E+00
 1.34730E+00
 1.46148E+00
 1.39877E+00
 1.37681E+00
 1.30700E+00
 1.23878E+00
 1.18375E+00
 1.20893E+00
 1.32205E+00
 1.34846E+00
 1.38177E+00
 1.32451E+00
 1.29544E+00
 1.19092E+00
 1.10555E+00
 1.14124E+00
 1.20743E+00
 1.25294E+00
 1.25255E+00
 1.20547E+00
 1.11006E+00
 1.05197E+00
 1.02668E+00
 1.00000E+00
 1.00000E+00
 1.00000E+00
 1.00000E+00
 1.00000E+00
 1.00000E+00
 1.00000E+00
 1.00000E+00
 1.00000E+00
 1.00000E+00
 1.00000E+00
 1.00000E+00
 1.00000E+00
 1.00000E+00
 1.00000E+00
 1.00000E+00
 1.00000E+00
 1.00000E+00
 1.00000E+00
 1.00000E+00
 1.00000E+00
 1.00000E+00
 1.00000E+00
 SCALARS gradient1 float  1                        
LOOKUP_TABLE default
 0.00000E+00
 0.00000E+00
 0.00000E+00
 0.00000E+00
 0.00000E+00
 0.00000E+00
 0.00000E+00
 0.00000E+00
 0.00000E+00
 0.00000E+00
 0.00000E+00
 0.00000E+00
 0.00000E+00
 0.00000E+00
 0.00000E+00
 0.00000E+00
 0.00000E+00
 0.00000E+00
 0.00000E+00
 0.00000E+00
 0.00000E+00
 0.00000E+00
 0.00000E+00
 0.00000E+00
 0.00000E+00
 0.00000E+00
 0.00000E+00
 0.00000E+00
 0.00000E+00
 0.00000E+00
 0.00000E+00
 0.00000E+00
 0.00000E+00
 0.00000E+00
 0.00000E+00
 0.00000E+00
 0.00000E+00
 0.00000E+00
 0.00000E+00
 0.00000E+00
 0.00000E+00
 0.00000E+00
 0.00000E+00
 0.00000E+00
 0.00000E+00
 0.00000E+00
 0.00000E+00
 0.00000E+00
 0.00000E+00
 0.00000E+00
 0.00000E+00
 0.00000E+00
 0.00000E+00
 0.00000E+00
 0.00000E+00
 0.00000E+00
 0.00000E+00
 0.00000E+00
 0.00000E+00
 0.00000E+00
 0.00000E+00
 0.00000E+00
 0.00000E+00
 0.00000E+00
 0.00000E+00
 0.00000E+00
 0.00000E+00
 0.00000E+00
 0.00000E+00
 0.00000E+00
 0.00000E+00
 0.00000E+00
 0.00000E+00
 0.00000E+00
 0.00000E+00
 0.00000E+00
 0.00000E+00
 0.00000E+00
 0.00000E+00
 0.00000E+00
 0.00000E+00
 0.00000E+00
 0.00000E+00
 0.00000E+00
 0.00000E+00
 0.00000E+00
 0.00000E+00
 0.00000E+00
 SCALARS gradient2 float  1                        
LOOKUP_TABLE default
-3.00739E-13
-3.44061E-12
-1.45480E-12
 2.84579E-12
 4.09040E-12
 1.51757E-12
 4.59510E-12
 3.18639E-13
 3.37321E-12
-3.19882E-13
 8.67166E-12
 8.61319E-13
 2.74006E-12
 1.65874E-12
-3.74382E-12
-2.17246E-12
-3.05988E-12
 3.00263E-12
-6.01169E-12
 2.04747E-12
 2.18420E-12
-2.62569E-12
 9.74529E-13
 8.00523E-13
-9.93337E-13
-1.16392E-12
-1.67685E-12
-2.74917E-12
-3.17399E-12
-2.43304E-12
-1.78461E-12
-1.59544E-12
-1.98834E-12
-2.00642E-12
-3.04650E-12
-6.31272E-12
-1.02893E-12
-5.51644E-12
-3.25817E-12
-2.83910E-12
-2.46434E-12
-1.53388E-12
-3.87967E-12
 4.89938E-14
-7.40340E-12
-3.30631E-12
-2.98163E-12
-3.34080E-12
-1.46612E-12
-3.13102E-12
-7.47073E-13
-7.34982E-12
-1.79375E-12
-4.90653E-12
-3.62835E-12
-2.67058E-12
-1.25276E-12
-6.92974E-13
-2.95206E-12
-3.07705E-12
-3.33618E-12
-2.96893E-12
-1.15551E-12
-3.11011E-13
 4.64745E-13
-2.33792E-12
 6.66358E-13
 1.97497E-12
 2.91954E-12
 3.81655E-12
 3.69358E-12
 1.14855E-12
 1.26887E-12
 7.51443E-12
 1.10239E-11
 1.51735E-11
 1.67440E-11
 1.34310E-11
 9.35990E-12
 2.77465E-12
 1.87248E-12
 4.46720E-12
 7.53959E-12
 1.04123E-11
 9.97931E-12
 6.44158E-12
 4.02950E-12
 5.59864E-13
CELL_DATA         140
SCALARS elemDataMatch  float  1
LOOKUP_TABLE default
 0.00000E+00
 2.28786E-13
 2.28786E-13
 1.82519E-13
 1.18133E-13
 1.05688E-13
 1.69168E-15
 3.91556E-13
 4.16405E-13
 3.19019E-13
 5.79366E-14
 2.19786E-13
 8.97430E-14
 8.97430E-14
 2.28786E-13
 2.17056E-13
 1.79701E-13
 1.35787E-13
 1.12372E-13
 1.85637E-13
 8.50586E-13
 1.17088E-12
 4.51052E-13
 1.82084E-13
 1.57660E-13
 3.19447E-13
 4.74157E-13
 2.38205E-13
 6.72246E-16
 1.48559E-15
 2.82900E-15
 3.94467E-14
 1.50084E-13
 3.43389E-13
 6.80566E-13
 1.61675E-12
 1.66675E-12
 1.82198E-12
 2.51106E-13
 4.39761E-13
 3.13409E-13
 3.73469E-13
 3.37221E-16
 8.35172E-14
 6.58890E-14
 1.81771E-13
 2.30970E-13
 1.00459E-12
 2.31843E-12
 1.20411E-12
 8.67271E-13
 2.59811E-13
 1.16213E-12
 9.02892E-13
 4.58667E-13
 1.36911E-14
 7.80496E-14
 5.97280E-14
 2.11798E-13
 7.51609E-14
 4.46109E-13
 9.65970E-13
 8.10826E-13
 4.65965E-13
 4.09300E-13
 3.23379E-13
 1.65363E-13
 9.88626E-14
 7.29645E-14
 3.68208E-14
 1.10628E-14
 1.41703E-13
 2.68542E-13
 8.23175E-13
 4.27951E-13
 5.68400E-13
 4.57961E-13
 7.97973E-13
 6.73659E-13
 2.33934E-13
 1.02125E-13
 8.22231E-14
 7.18521E-14
 1.30830E-14
 9.77547E-14
 3.10928E-13
 4.47404E-13
 4.18183E-13
 6.50043E-13
 4.36952E-13
 7.60241E-13
 3.20855E-13
 4.81236E-14
 4.34037E-13
 3.28780E-13
 1.41737E-12
 5.73425E-13
 6.52754E-13
 4.14456E-13
 3.69005E-13
 4.15912E-13
 1.07651E-12
 8.28966E-13
 2.70536E-12
 1.32947E-12
 2.77148E-12
 2.20561E-12
 2.59432E-12
 2.02766E-12
 1.50540E-12
 1.11380E-12
 1.49087E-13
 3.17037E-13
 2.49271E-13
 9.23482E-13
 4.47496E-13
 2.05330E-12
 1.19739E-12
 3.30141E-12
 2.17731E-12
 2.09631E-12
 6.55693E-13
 6.05828E-13
 2.79802E-13
 1.15893E-13
 1.66931E-14
 1.51115E-13
 1.51115E-13
 1.24857E-13
 7.57456E-15
 1.29304E-13
 9.49163E-14
 4.03524E-13
 1.78459E-13
 3.91412E-13
 8.77869E-14
 6.61990E-14
 1.66931E-14
 1.66931E-14
 0.00000E+00
SCALARS elemRegul  float  1
LOOKUP_TABLE default
 1.43426E-14
 1.45227E-14
 1.26341E-14
 1.18326E-14
 1.18034E-14
 1.18034E-14
 3.12500E-16
 3.12500E-16
 3.12500E-16
 3.12500E-16
 2.85297E-14
 2.85297E-14
 3.81361E-14
 3.23661E-15
 1.07809E-14
 3.59323E-14
 2.49736E-14
 3.93977E-14
 1.66896E-14
 5.52928E-14
 3.90985E-14
 3.75633E-14
 3.75305E-14
 3.60313E-14
 1.56343E-15
 9.93244E-15
 7.75015E-15
 1.91304E-14
 1.11972E-13
 1.09191E-13
 1.13057E-13
 1.89981E-13
 1.89528E-13
 2.31209E-13
 2.19381E-13
 3.05266E-13
 2.98098E-13
 2.89960E-13
 2.86426E-13
 2.16578E-13
 2.02184E-13
 1.59484E-13
 8.44265E-14
 1.33421E-13
 1.25587E-13
 2.32344E-13
 2.11376E-13
 1.89435E-13
 1.95966E-13
 2.47280E-13
 2.24330E-13
 1.90525E-13
 1.74835E-13
 1.69326E-13
 1.46412E-13
 1.28268E-13
 7.76360E-14
 7.60565E-14
 1.29718E-13
 1.34267E-13
 7.50721E-14
 1.98057E-13
 1.78203E-13
 9.55475E-14
 1.21769E-13
 3.83209E-14
 9.69225E-14
 9.31699E-14
 8.29485E-14
 8.84839E-14
 6.32000E-14
 5.78083E-14
 1.33591E-13
 1.44878E-13
 1.46170E-13
 1.45080E-13
 1.61563E-13
 4.67495E-14
 3.47146E-14
 9.69470E-14
 1.09044E-13
 3.91050E-14
 8.64893E-14
 1.43701E-13
 1.02685E-13
 9.56540E-14
 1.64781E-13
 1.65447E-13
 1.47027E-13
 1.32261E-13
 1.26456E-13
 1.61525E-13
 1.76676E-13