# vtk DataFile Version 2.0
Output of NLACE
ASCII
DATASET UNSTRUCTURED_GRID
POINTS           88 FLOAT
 6.000000E-01  2.500000E-01  0.000000E+00
 6.500000E-01  2.500000E-01  0.000000E+00
 7.000000E-01  2.500000E-01  0.000000E+00
 7.500000E-01  2.500000E-01  0.000000E+00
 8.000000E-01  2.500000E-01  0.000000E+00
 8.500000E-01  2.500000E-01  0.000000E+00
 9.000000E-01  2.500000E-01  0.000000E+00
 9.500000E-01  2.500000E-01  0.000000E+00
 6.000000E-01  3.000000E-01  0.000000E+00
 6.500000E-01  3.000000E-01  0.000000E+00
 7.000000E-01  3.000000E-01  0.000000E+00
 7.500000E-01  3.000000E-01  0.000000E+00
 8.000000E-01  3.000000E-01  0.000000E+00
 8.500000E-01  3.000000E-01  0.000000E+00
 9.000000E-01  3.000000E-01  0.000000E+00
 9.500000E-01  3.000000E-01  0.000000E+00
 6.000000E-01  3.500000E-01  0.000000E+00
 6.500000E-01  3.500000E-01  0.000000E+00
 7.000000E-01  3.500000E-01  0.000000E+00
 7.500000E-01  3.500000E-01  0.000000E+00
 8.000000E-01  3.500000E-01  0.000000E+00
 8.500000E-01  3.500000E-01  0.000000E+00
 9.000000E-01  3.500000E-01  0.000000E+00
 9.500000E-01  3.500000E-01  0.000000E+00
 6.000000E-01  4.000000E-01  0.000000E+00
 6.500000E-01  4.000000E-01  0.000000E+00
 7.000000E-01  4.000000E-01  0.000000E+00
 7.500000E-01  4.000000E-01  0.000000E+00
 8.000000E-01  4.000000E-01  0.000000E+00
 8.500000E-01  4.000000E-01  0.000000E+00
 9.000000E-01  4.000000E-01  0.000000E+00
 9.500000E-01  4.000000E-01  0.000000E+00
 6.000000E-01  4.500000E-01  0.000000E+00
 6.500000E-01  4.500000E-01  0.000000E+00
 7.000000E-01  4.500000E-01  0.000000E+00
 7.500000E-01  4.500000E-01  0.000000E+00
 8.000000E-01  4.500000E-01  0.000000E+00
 8.500000E-01  4.500000E-01  0.000000E+00
 9.000000E-01  4.500000E-01  0.000000E+00
 9.500000E-01  4.500000E-01  0.000000E+00
 6.000000E-01  5.000000E-01  0.000000E+00
 6.500000E-01  5.000000E-01  0.000000E+00
 7.000000E-01  5.000000E-01  0.000000E+00
 7.500000E-01  5.000000E-01  0.000000E+00
 8.000000E-01  5.000000E-01  0.000000E+00
 8.500000E-01  5.000000E-01  0.000000E+00
 9.000000E-01  5.000000E-01  0.000000E+00
 9.500000E-01  5.000000E-01  0.000000E+00
 6.000000E-01  5.500000E-01  0.000000E+00
 6.500000E-01  5.500000E-01  0.000000E+00
 7.000000E-01  5.500000E-01  0.000000E+00
 7.500000E-01  5.500000E-01  0.000000E+00
 8.000000E-01  5.500000E-01  0.000000E+00
 8.500000E-01  5.500000E-01  0.000000E+00
 9.000000E-01  5.500000E-01  0.000000E+00
 9.500000E-01  5.500000E-01  0.000000E+00
 6.000000E-01  6.000000E-01  0.000000E+00
 6.500000E-01  6.000000E-01  0.000000E+00
 7.000000E-01  6.000000E-01  0.000000E+00
 7.500000E-01  6.000000E-01  0.000000E+00
 8.000000E-01  6.000000E-01  0.000000E+00
 8.500000E-01  6.000000E-01  0.000000E+00
 9.000000E-01  6.000000E-01  0.000000E+00
 9.500000E-01  6.000000E-01  0.000000E+00
 6.000000E-01  6.500000E-01  0.000000E+00
 6.500000E-01  6.500000E-01  0.000000E+00
 7.000000E-01  6.500000E-01  0.000000E+00
 7.500000E-01  6.500000E-01  0.000000E+00
 8.000000E-01  6.500000E-01  0.000000E+00
 8.500000E-01  6.500000E-01  0.000000E+00
 9.000000E-01  6.500000E-01  0.000000E+00
 9.500000E-01  6.500000E-01  0.000000E+00
 6.000000E-01  7.000000E-01  0.000000E+00
 6.500000E-01  7.000000E-01  0.000000E+00
 7.000000E-01  7.000000E-01  0.000000E+00
 7.500000E-01  7.000000E-01  0.000000E+00
 8.000000E-01  7.000000E-01  0.000000E+00
 8.500000E-01  7.000000E-01  0.000000E+00
 9.000000E-01  7.000000E-01  0.000000E+00
 9.500000E-01  7.000000E-01  0.000000E+00
 6.000000E-01  7.500000E-01  0.000000E+00
 6.500000E-01  7.500000E-01  0.000000E+00
 7.000000E-01  7.500000E-01  0.000000E+00
 7.500000E-01  7.500000E-01  0.000000E+00
 8.000000E-01  7.500000E-01  0.000000E+00
 8.500000E-01  7.500000E-01  0.000000E+00
 9.000000E-01  7.500000E-01  0.000000E+00
 9.500000E-01  7.500000E-01  0.000000E+00
CELLS          140         560
           3           0           1           8
           3           1           9           8
           3           1           2           9
           3           2          10           9
           3           2           3          10
           3           3          11          10
           3           3           4          11
           3           4          12          11
           3           4           5          12
           3           5          13          12
           3           5           6          13
           3           6          14          13
           3           6           7          14
           3           7          15          14
           3           8           9          16
           3           9          17          16
           3           9          10          17
           3          10          18          17
           3          10          11          18
           3          11          19          18
           3          11          12          19
           3          12          20          19
           3          12          13          20
           3          13          21          20
           3          13          14          21
           3          14          22          21
           3          14          15          22
           3          15          23          22
           3          16          17          24
           3          17          25          24
           3          17          18          25
           3          18          26          25
           3          18          19          26
           3          19          27          26
           3          19          20          27
           3          20          28          27
           3          20          21          28
           3          21          29          28
           3          21          22          29
           3          22          30          29
           3          22          23          30
           3          23          31          30
           3          24          25          32
           3          25          33          32
           3          25          26          33
           3          26          34          33
           3          26          27          34
           3          27          35          34
           3          27          28          35
           3          28          36          35
           3          28          29          36
           3          29          37          36
           3          29          30          37
           3          30          38          37
           3          30          31          38
           3          31          39          38
           3          32          33          40
           3          33          41          40
           3          33          34          41
           3          34          42          41
           3          34          35          42
           3          35          43          42
           3          35          36          43
           3          36          44          43
           3          36          37          44
           3          37          45          44
           3          37          38          45
           3          38          46          45
           3          38          39          46
           3          39          47          46
           3          40          41          48
           3          41          49          48
           3          41          42          49
           3          42          50          49
           3          42          43          50
           3          43          51          50
           3          43          44          51
           3          44          52          51
           3          44          45          52
           3          45          53          52
           3          45          46          53
           3          46          54          53
           3          46          47          54
           3          47          55          54
           3          48          49          56
           3          49          57          56
           3          49          50          57
           3          50          58          57
           3          50          51          58
           3          51          59          58
           3          51          52          59
           3          52          60          59
           3          52          53          60
           3          53          61          60
           3          53          54          61
           3          54          62          61
           3          54          55          62
           3          55          63          62
           3          56          57          64
           3          57          65          64
           3          57          58          65
           3          58          66          65
           3          58          59          66
           3          59          67          66
           3          59          60          67
           3          60          68          67
           3          60          61          68
           3          61          69          68
           3          61          62          69
           3          62          70          69
           3          62          63          70
           3          63          71          70
           3          64          65          72
           3          65          73          72
           3          65          66          73
           3          66          74          73
           3          66          67          74
           3          67          75          74
           3          67          68          75
           3          68          76          75
           3          68          69          76
           3          69          77          76
           3          69          70          77
           3          70          78          77
           3          70          71          78
           3          71          79          78
           3          72          73          80
           3          73          81          80
           3          73          74          81
           3          74          82          81
           3          74          75          82
           3          75          83          82
           3          75          76          83
           3          76          84          83
           3          76          77          84
           3          77          85          84
           3          77          78          85
           3          78          86          85
           3          78          79          86
           3          79          87          86
CELL_TYPES          140
5
5
5
5
5
5
5
5
5
5
5
5
5
5
5
5
5
5
5
5
5
5
5
5
5
5
5
5
5
5
5
5
5
5
5
5
5
5
5
5
5
5
5
5
5
5
5
5
5
5
5
5
5
5
5
5
5
5
5
5
5
5
5
5
5
5
5
5
5
5
5
5
5
5
5
5
5
5
5
5
5
5
5
5
5
5
5
5
5
5
5
5
5
5
5
5
5
5
5
5
5
5
5
5
5
5
5
5
5
5
5
5
5
5
5
5
5
5
5
5
5
5
5
5
5
5
5
5
5
5
5
5
5
5
5
5
5
5
5
5
POINT_DATA           88
 SCALARS measuredDisp11 float  1                   
LOOKUP_TABLE default
 1.60000E-04
 2.36000E-04
 3.78000E-04
 5.10000E-04
 5.99000E-04
 7.16000E-04
 8.28000E-04
 9.85000E-04
 1.80000E-04
 2.39000E-04
 4.14000E-04
 4.16000E-04
 5.88000E-04
 7.34000E-04
 8.06000E-04
 9.81000E-04
 1.76000E-04
 3.33000E-04
 3.51000E-04
 3.74000E-04
 5.56000E-04
 6.67000E-04
 7.67000E-04
 8.85000E-04
 2.18000E-04
 3.55000E-04
 4.39000E-04
 5.02000E-04
 5.04000E-04
 5.75000E-04
 6.77000E-04
 7.85000E-04
 2.65000E-04
 4.09000E-04
 5.20000E-04
 5.11000E-04
 5.49000E-04
 5.82000E-04
 5.87000E-04
 8.10000E-04
 2.37000E-04
 3.57000E-04
 5.39000E-04
 4.27000E-04
 5.30000E-04
 6.13000E-04
 6.18000E-04
 6.40000E-04
 2.28000E-04
 3.42000E-04
 5.19000E-04
 4.62000E-04
 5.10000E-04
 6.02000E-04
 5.97000E-04
 8.01000E-04
 1.86000E-04
 3.10000E-04
 4.09000E-04
 5.36000E-04
 5.25000E-04
 5.93000E-04
 6.97000E-04
 7.79000E-04
 1.95000E-04
 2.72000E-04
 3.78000E-04
 4.81000E-04
 5.57000E-04
 6.59000E-04
 8.34000E-04
 8.67000E-04
 1.60000E-04
 2.57000E-04
 4.53000E-04
 4.60000E-04
 5.96000E-04
 7.29000E-04
 8.04000E-04
 9.40000E-04
 1.89000E-04
 2.52000E-04
 3.96000E-04
 4.41000E-04
 5.92000E-04
 7.39000E-04
 9.06000E-04
 9.78000E-04
 SCALARS measuredDisp12 float  1                   
LOOKUP_TABLE default
 1.52300E-03
 1.49400E-03
 1.47800E-03
 1.37500E-03
 1.37100E-03
 1.43200E-03
 1.39700E-03
 1.51600E-03
 1.38600E-03
 1.43000E-03
 1.32100E-03
 1.30900E-03
 1.23200E-03
 1.34200E-03
 1.36900E-03
 1.42900E-03
 1.33200E-03
 1.28300E-03
 1.24700E-03
 1.17400E-03
 1.18700E-03
 1.18400E-03
 1.29500E-03
 1.29500E-03
 1.24200E-03
 1.18800E-03
 1.17600E-03
 1.10000E-03
 1.03800E-03
 1.10900E-03
 1.10200E-03
 1.21700E-03
 1.17100E-03
 1.07600E-03
 1.04500E-03
 1.00900E-03
 1.10900E-03
 1.02900E-03
 1.06300E-03
 1.06500E-03
 1.01900E-03
 1.01900E-03
 1.02100E-03
 9.31000E-04
 1.04200E-03
 1.03900E-03
 9.84000E-04
 9.95000E-04
 8.93000E-04
 9.46000E-04
 9.82000E-04
 9.78000E-04
 9.54000E-04
 9.32000E-04
 9.23000E-04
 9.56000E-04
 7.84000E-04
 7.58000E-04
 8.28000E-04
 9.00000E-04
 8.74000E-04
 9.25000E-04
 9.24000E-04
 8.07000E-04
 6.60000E-04
 7.70000E-04
 8.23000E-04
 8.59000E-04
 8.85000E-04
 8.07000E-04
 7.87000E-04
 7.12000E-04
 6.24000E-04
 5.67000E-04
 6.54000E-04
 7.09000E-04
 7.34000E-04
 7.27000E-04
 6.30000E-04
 5.98000E-04
 5.12000E-04
 4.59000E-04
 5.47000E-04
 5.89000E-04
 5.95000E-04
 6.48000E-04
 5.20000E-04
 5.02000E-04
 SCALARS measuredDisp13 float  1                   
LOOKUP_TABLE default
 4.29600E-03
 4.18100E-03
 3.88600E-03
 3.35800E-03
 2.89100E-03
 2.65600E-03
 2.88000E-03
 3.45500E-03
 3.90000E-03
 4.22100E-03
 4.36400E-03
 4.57000E-03
 4.40600E-03
 4.19500E-03
 3.50900E-03
 2.40800E-03
 1.94000E-03
 2.46100E-03
 3.62000E-03
 4.16300E-03
 4.47600E-03
 4.46600E-03
 4.78600E-03
 4.80500E-03
 4.93700E-03
 4.25500E-03
 2.31600E-03
 1.88700E-03
 2.38500E-03
 4.28500E-03
 4.91200E-03
 4.83700E-03
 4.72200E-03
 4.96400E-03
 5.38100E-03
 6.06900E-03
 6.07100E-03
 4.27400E-03
 4.92200E-03
 4.25300E-03
 6.04200E-03
 5.92800E-03
 5.38200E-03
 4.95300E-03
 5.07000E-03
 5.52600E-03
 6.50000E-03
 6.48300E-03
 4.17200E-03
 4.60700E-03
 4.15100E-03
 6.49300E-03
 6.53600E-03
 5.54200E-03
 4.97000E-03
 4.91300E-03
 5.20500E-03
 5.77700E-03
 5.89600E-03
 4.72800E-03
 5.21500E-03
 4.68700E-03
 5.95300E-03
 5.91800E-03
 5.28800E-03
 4.83100E-03
 4.44600E-03
 4.59100E-03
 4.75900E-03
 4.39000E-03
 3.38200E-03
 3.30100E-03
 3.37800E-03
 4.42100E-03
 4.84600E-03
 4.59600E-03
 4.50300E-03
 4.02500E-03
 4.02900E-03
 4.05400E-03
 3.98400E-03
 3.87100E-03
 3.62800E-03
 3.77000E-03
 3.99600E-03
 4.05500E-03
 4.02200E-03
 4.00000E-03
 SCALARS predictedDisp11 float  1                  
LOOKUP_TABLE default
 1.91336E-04
 2.90097E-04
 3.78000E-04
 4.94138E-04
 6.31340E-04
 7.40579E-04
 8.67478E-04
 9.82878E-04
 2.10362E-04
 3.11997E-04
 4.15429E-04
 5.17635E-04
 6.20530E-04
 7.22911E-04
 8.20422E-04
 9.11990E-04
 2.30651E-04
 3.37152E-04
 4.38137E-04
 5.30608E-04
 6.17569E-04
 7.02619E-04
 7.87111E-04
 8.78622E-04
 2.73174E-04
 3.70666E-04
 4.63560E-04
 5.44962E-04
 6.17228E-04
 6.87494E-04
 7.60905E-04
 8.35895E-04
 3.17257E-04
 4.05575E-04
 4.86197E-04
 5.55433E-04
 6.18235E-04
 6.80797E-04
 7.47571E-04
 8.20359E-04
 3.43392E-04
 4.21680E-04
 4.95560E-04
 5.60336E-04
 6.21077E-04
 6.83640E-04
 7.53341E-04
 8.32691E-04
 3.24790E-04
 4.10725E-04
 4.89379E-04
 5.57977E-04
 6.22177E-04
 6.87551E-04
 7.57208E-04
 8.31117E-04
 2.85103E-04
 3.81114E-04
 4.70040E-04
 5.48820E-04
 6.21884E-04
 6.93963E-04
 7.70659E-04
 8.60245E-04
 2.25005E-04
 3.36252E-04
 4.42026E-04
 5.37157E-04
 6.25402E-04
 7.12559E-04
 8.04141E-04
 9.05742E-04
 1.83067E-04
 3.05561E-04
 4.18726E-04
 5.25574E-04
 6.28826E-04
 7.33245E-04
 8.35621E-04
 9.41450E-04
 1.95330E-04
 2.93755E-04
 3.83607E-04
 5.04686E-04
 6.21754E-04
 7.53944E-04
 8.84143E-04
 9.76699E-04
 SCALARS predictedDisp12 float  1                  
LOOKUP_TABLE default
 1.52300E-03
 1.49400E-03
 1.47800E-03
 1.37500E-03
 1.37100E-03
 1.43200E-03
 1.39700E-03
 1.51600E-03
 1.38600E-03
 1.38026E-03
 1.34965E-03
 1.29910E-03
 1.28933E-03
 1.31242E-03
 1.33571E-03
 1.42900E-03
 1.33200E-03
 1.27984E-03
 1.24006E-03
 1.20623E-03
 1.19575E-03
 1.20950E-03
 1.23993E-03
 1.29500E-03
 1.24200E-03
 1.18369E-03
 1.14564E-03
 1.12270E-03
 1.11757E-03
 1.12805E-03
 1.15408E-03
 1.21700E-03
 1.17100E-03
 1.09986E-03
 1.07065E-03
 1.05866E-03
 1.05725E-03
 1.06254E-03
 1.07055E-03
 1.06500E-03
 1.01900E-03
 1.00922E-03
 1.00219E-03
 9.99974E-04
 1.00102E-03
 1.00313E-03
 1.00352E-03
 9.95000E-04
 8.93000E-04
 9.20008E-04
 9.32182E-04
 9.39328E-04
 9.42764E-04
 9.42195E-04
 9.40201E-04
 9.56000E-04
 7.84000E-04
 8.28712E-04
 8.56822E-04
 8.73940E-04
 8.80456E-04
 8.76103E-04
 8.55408E-04
 8.07000E-04
 6.60000E-04
 7.22783E-04
 7.63160E-04
 7.89679E-04
 7.99897E-04
 7.93272E-04
 7.57152E-04
 7.12000E-04
 6.24000E-04
 6.08869E-04
 6.51359E-04
 6.85694E-04
 6.99503E-04
 7.03897E-04
 6.46334E-04
 5.98000E-04
 5.12000E-04
 4.59000E-04
 5.47000E-04
 5.89000E-04
 5.95000E-04
 6.48000E-04
 5.20000E-04
 5.02000E-04
 SCALARS predictedDisp13 float  1                  
LOOKUP_TABLE default
 4.38153E-03
 4.32617E-03
 4.09205E-03
 3.59146E-03
 3.40602E-03
 3.51737E-03
 3.40653E-03
 3.40842E-03
 4.17905E-03
 4.15412E-03
 4.01245E-03
 3.68586E-03
 3.62411E-03
 3.68388E-03
 3.67831E-03
 3.80642E-03
 3.99946E-03
 4.07145E-03
 4.03411E-03
 3.89105E-03
 3.86760E-03
 3.95442E-03
 4.06873E-03
 4.16766E-03
 4.16334E-03
 4.17779E-03
 4.10843E-03
 4.00096E-03
 3.98593E-03
 4.09595E-03
 4.28276E-03
 4.49024E-03
 4.66656E-03
 4.56792E-03
 4.29896E-03
 4.10413E-03
 4.04703E-03
 4.14668E-03
 4.37698E-03
 4.49695E-03
 5.12612E-03
 4.84850E-03
 4.47400E-03
 4.20999E-03
 4.08319E-03
 4.08099E-03
 4.13843E-03
 4.13504E-03
 5.04688E-03
 4.81794E-03
 4.50808E-03
 4.26206E-03
 4.12574E-03
 4.11308E-03
 4.19691E-03
 4.33467E-03
 4.79082E-03
 4.66985E-03
 4.47715E-03
 4.29247E-03
 4.18293E-03
 4.20307E-03
 4.37351E-03
 4.45659E-03
 4.44084E-03
 4.46523E-03
 4.43097E-03
 4.27610E-03
 4.14444E-03
 4.09959E-03
 4.22405E-03
 4.28994E-03
 4.43015E-03
 4.58873E-03
 4.44926E-03
 4.16360E-03
 3.95360E-03
 3.82867E-03
 4.05591E-03
 4.18081E-03
 4.72773E-03
 4.74977E-03
 4.40492E-03
 4.05001E-03
 3.75307E-03
 3.64159E-03
 3.99873E-03
 4.10215E-03
 SCALARS dual11 float  1                           
LOOKUP_TABLE default
 3.41147E-09
 3.05675E-09
 0.00000E+00
 1.49456E-09
 6.52879E-09
 1.21064E-08
 1.17551E-08
 1.01063E-08
 5.60597E-09
 3.94493E-09
 2.91642E-09
 3.35901E-09
 7.58797E-09
 8.76393E-09
 7.88306E-09
 9.05441E-09
 1.15081E-08
 1.08414E-08
 8.54951E-09
 7.00749E-09
 5.56413E-09
 3.17405E-09
 2.27960E-10
 1.36310E-09
 2.15416E-08
 1.91524E-08
 1.56188E-08
 1.11643E-08
 4.93791E-09
-3.84911E-09
-8.93451E-09
-1.31699E-08
 3.02196E-08
 2.62943E-08
 2.16662E-08
 1.42645E-08
 2.79904E-09
-7.96864E-09
-1.67682E-08
-2.46625E-08
 3.34025E-08
 2.78130E-08
 2.24851E-08
 1.38068E-08
 1.92160E-09
-8.51658E-09
-1.74519E-08
-2.74844E-08
 2.56001E-08
 2.13802E-08
 1.79138E-08
 1.07373E-08
 3.23595E-09
-3.28497E-09
-1.01901E-08
-1.90671E-08
 8.27718E-09
 8.24960E-09
 6.87748E-09
 5.18611E-09
 5.08330E-09
 4.74016E-09
 4.71656E-09
 3.53170E-09
-1.44128E-08
-1.23233E-08
-8.65613E-09
-1.82263E-09
 7.08359E-09
 1.74546E-08
 2.68243E-08
 3.42451E-08
-3.93062E-08
-3.05149E-08
-2.17626E-08
-7.16341E-09
 1.18849E-08
 3.06414E-08
 4.60262E-08
 5.79901E-08
-4.93860E-08
-3.93671E-08
-2.72032E-08
-7.76764E-09
 1.57687E-08
 3.70192E-08
 5.22235E-08
 6.48251E-08
 SCALARS dual12 float  1                           
LOOKUP_TABLE default
 0.00000E+00
 0.00000E+00
 0.00000E+00
 0.00000E+00
 0.00000E+00
 0.00000E+00
 0.00000E+00
 0.00000E+00
 0.00000E+00
 1.31452E-08
-5.18914E-09
-1.55785E-08
-2.67229E-08
-4.59995E-10
 1.42698E-08
 0.00000E+00
 0.00000E+00
 7.63939E-09
-2.70983E-09
-2.64608E-08
-3.19925E-08
-1.32420E-08
 1.02848E-08
 0.00000E+00
 0.00000E+00
 5.61974E-09
 2.41271E-10
-2.40059E-08
-2.96111E-08
-1.47640E-08
-9.89474E-09
 0.00000E+00
 0.00000E+00
 1.91357E-09
-7.81809E-10
-1.11499E-08
 5.03354E-09
 2.66556E-09
-1.22425E-09
 0.00000E+00
 0.00000E+00
 1.14071E-08
 1.75150E-08
 1.48132E-08
 3.39815E-08
 2.83447E-08
 9.67602E-09
 0.00000E+00
 0.00000E+00
 1.72915E-08
 3.56613E-08
 4.88991E-08
 5.42959E-08
 4.29728E-08
 2.39347E-08
 0.00000E+00
 0.00000E+00
 5.55652E-09
 3.91256E-08
 6.88797E-08
 7.39937E-08
 6.96503E-08
 4.88201E-08
 0.00000E+00
 0.00000E+00
 2.09758E-08
 5.74886E-08
 8.81818E-08
 9.62126E-08
 7.35272E-08
 4.31925E-08
 0.00000E+00
 0.00000E+00
 4.32450E-09
 3.16581E-08
 5.57055E-08
 6.06005E-08
 4.38684E-08
 1.79104E-08
 0.00000E+00
 0.00000E+00
 0.00000E+00
 0.00000E+00
 0.00000E+00
 0.00000E+00
 0.00000E+00
 0.00000E+00
 0.00000E+00
 SCALARS dual13 float  1                           
LOOKUP_TABLE default
-3.56113E-08
-4.19550E-08
-1.58634E-07
-2.99050E-07
-3.55118E-07
-2.37579E-07
-7.94240E-08
-3.51968E-08
-2.69711E-08
-5.93815E-08
-1.46716E-07
-2.42350E-07
-2.59844E-07
-1.86984E-07
-1.07214E-07
-8.46704E-08
-1.83107E-08
-2.58593E-08
-2.78604E-08
-4.34856E-08
-4.91927E-08
-7.53616E-08
-9.11212E-08
-8.58069E-08
 6.64275E-08
 8.47287E-08
 1.65091E-07
 2.70838E-07
 3.40574E-07
 2.46298E-07
 1.24351E-07
 9.58124E-08
 1.82776E-07
 2.56372E-07
 4.61098E-07
 7.06334E-07
 8.03543E-07
 6.53679E-07
 4.30735E-07
 3.12016E-07
 2.80908E-07
 3.89623E-07
 6.56267E-07
 9.26927E-07
 9.76412E-07
 8.12444E-07
 5.75869E-07
 4.40869E-07
 2.15013E-07
 2.97864E-07
 5.41952E-07
 7.94977E-07
 8.42044E-07
 7.49569E-07
 5.70219E-07
 4.43839E-07
 5.99433E-08
 1.30434E-07
 2.87797E-07
 4.30328E-07
 4.68176E-07
 3.88197E-07
 2.45957E-07
 1.81473E-07
-9.33640E-08
-1.15630E-07
-1.75241E-07
-2.18916E-07
-2.47169E-07
-2.55125E-07
-2.17088E-07
-1.57504E-07
-3.20424E-07
-4.15923E-07
-6.36404E-07
-8.25226E-07
-8.69257E-07
-7.46166E-07
-5.27784E-07
-3.82741E-07
-3.75585E-07
-5.27712E-07
-8.42021E-07
-1.08098E-06
-1.09573E-06
-8.84498E-07
-5.89274E-07
-4.43671E-07
 SCALARS NLP float  1                              
LOOKUP_TABLE default
 0.00000E+00
 0.00000E+00
 0.00000E+00
 0.00000E+00
 0.00000E+00
 0.00000E+00
 0.00000E+00
 0.00000E+00
 0.00000E+00
 0.00000E+00
 0.00000E+00
 0.00000E+00
 0.00000E+00
 0.00000E+00
 0.00000E+00
 0.00000E+00
 0.00000E+00
 0.00000E+00
 0.00000E+00
 0.00000E+00
 0.00000E+00
 0.00000E+00
 0.00000E+00
 0.00000E+00
 0.00000E+00
 0.00000E+00
 0.00000E+00
 0.00000E+00
 0.00000E+00
 0.00000E+00
 0.00000E+00
 0.00000E+00
 0.00000E+00
 0.00000E+00
 0.00000E+00
 0.00000E+00
 0.00000E+00
 0.00000E+00
 0.00000E+00
 0.00000E+00
 0.00000E+00
 0.00000E+00
 0.00000E+00
 0.00000E+00
 0.00000E+00
 0.00000E+00
 0.00000E+00
 0.00000E+00
 0.00000E+00
 0.00000E+00
 0.00000E+00
 0.00000E+00
 0.00000E+00
 0.00000E+00
 0.00000E+00
 0.00000E+00
 0.00000E+00
 0.00000E+00
 0.00000E+00
 0.00000E+00
 0.00000E+00
 0.00000E+00
 0.00000E+00
 0.00000E+00
 0.00000E+00
 0.00000E+00
 0.00000E+00
 0.00000E+00
 0.00000E+00
 0.00000E+00
 0.00000E+00
 0.00000E+00
 0.00000E+00
 0.00000E+00
 0.00000E+00
 0.00000E+00
 0.00000E+00
 0.00000E+00
 0.00000E+00
 0.00000E+00
 0.00000E+00
 0.00000E+00
 0.00000E+00
 0.00000E+00
 0.00000E+00
 0.00000E+00
 0.00000E+00
 0.00000E+00
 SCALARS SM float  1                               
LOOKUP_TABLE default
 1.00732E+00
 1.00390E+00
 1.01772E+00
 1.00000E+00
 1.00000E+00
 1.00860E+00
 1.00000E+00
 1.01207E+00
 1.01141E+00
 1.04169E+00
 1.00640E+00
 1.00198E+00
 1.00820E+00
 1.00000E+00
 1.04235E+00
 1.00000E+00
 1.02676E+00
 1.04083E+00
 1.06509E+00
 1.03157E+00
 1.02800E+00
 1.02375E+00
 1.01726E+00
 1.01493E+00
 1.14823E+00
 1.18003E+00
 1.23686E+00
 1.35128E+00
 1.44874E+00
 1.37690E+00
 1.26625E+00
 1.21982E+00
 1.26587E+00
 1.32600E+00
 1.48748E+00
 1.61640E+00
 1.65618E+00
 1.60403E+00
 1.46102E+00
 1.37595E+00
 1.32431E+00
 1.36701E+00
 1.54853E+00
 1.65580E+00
 1.66105E+00
 1.60359E+00
 1.49862E+00
 1.41458E+00
 1.29127E+00
 1.32953E+00
 1.47400E+00
 1.60724E+00
 1.60289E+00
 1.55107E+00
 1.49508E+00
 1.33236E+00
 1.15800E+00
 1.21060E+00
 1.34261E+00
 1.43047E+00
 1.43915E+00
 1.36273E+00
 1.17136E+00
 1.06535E+00
 1.01819E+00
 1.00970E+00
 1.00000E+00
 1.00207E+00
 1.00000E+00
 1.00000E+00
 1.00000E+00
 1.00000E+00
 1.00000E+00
 1.00000E+00
 1.00000E+00
 1.00000E+00
 1.00000E+00
 1.00000E+00
 1.00000E+00
 1.00000E+00
 1.00000E+00
 1.00000E+00
 1.00000E+00
 1.00000E+00
 1.00000E+00
 1.00000E+00
 1.00000E+00
 1.00000E+00
 SCALARS gradient1 float  1                        
LOOKUP_TABLE default
 0.00000E+00
 0.00000E+00
 0.00000E+00
 0.00000E+00
 0.00000E+00
 0.00000E+00
 0.00000E+00
 0.00000E+00
 0.00000E+00
 0.00000E+00
 0.00000E+00
 0.00000E+00
 0.00000E+00
 0.00000E+00
 0.00000E+00
 0.00000E+00
 0.00000E+00
 0.00000E+00
 0.00000E+00
 0.00000E+00
 0.00000E+00
 0.00000E+00
 0.00000E+00
 0.00000E+00
 0.00000E+00
 0.00000E+00
 0.00000E+00
 0.00000E+00
 0.00000E+00
 0.00000E+00
 0.00000E+00
 0.00000E+00
 0.00000E+00
 0.00000E+00
 0.00000E+00
 0.00000E+00
 0.00000E+00
 0.00000E+00
 0.00000E+00
 0.00000E+00
 0.00000E+00
 0.00000E+00
 0.00000E+00
 0.00000E+00
 0.00000E+00
 0.00000E+00
 0.00000E+00
 0.00000E+00
 0.00000E+00
 0.00000E+00
 0.00000E+00
 0.00000E+00
 0.00000E+00
 0.00000E+00
 0.00000E+00
 0.00000E+00
 0.00000E+00
 0.00000E+00
 0.00000E+00
 0.00000E+00
 0.00000E+00
 0.00000E+00
 0.00000E+00
 0.00000E+00
 0.00000E+00
 0.00000E+00
 0.00000E+00
 0.00000E+00
 0.00000E+00
 0.00000E+00
 0.00000E+00
 0.00000E+00
 0.00000E+00
 0.00000E+00
 0.00000E+00
 0.00000E+00
 0.00000E+00
 0.00000E+00
 0.00000E+00
 0.00000E+00
 0.00000E+00
 0.00000E+00
 0.00000E+00
 0.00000E+00
 0.00000E+00
 0.00000E+00
 0.00000E+00
 0.00000E+00
 SCALARS gradient2 float  1                        
LOOKUP_TABLE default
-1.71760E-13
-4.47157E-12
 2.32940E-12
-1.41676E-12
-1.24394E-13
 4.68021E-12
-4.16322E-12
 1.95358E-13
-2.02549E-12
 5.92268E-12
-3.88507E-12
 3.26781E-13
 4.69290E-12
-6.26828E-12
 7.64175E-12
-3.95642E-12
-2.02338E-12
-1.89392E-12
 1.63666E-12
-8.06201E-13
 1.62928E-13
-1.01324E-13
-3.51774E-12
 1.60731E-13
-8.20491E-13
-6.22517E-13
-5.82714E-13
-1.14113E-12
-1.38247E-12
-1.28681E-12
-7.97367E-13
-1.13688E-12
-1.42733E-12
-5.67112E-13
-7.03122E-13
-2.32815E-12
-6.82350E-13
-9.52592E-13
-1.53351E-12
-2.06757E-12
-1.04705E-12
-3.07345E-13
-7.64530E-13
-4.71641E-13
 1.87442E-12
-1.89526E-12
-1.55191E-12
-2.34112E-12
-1.38721E-12
-6.27635E-13
-1.55358E-12
-7.68106E-13
-1.75274E-12
-2.08822E-12
-1.46590E-12
-2.17457E-12
-7.47038E-13
-8.48520E-13
-1.05755E-12
-2.01815E-12
-2.22409E-12
-2.04220E-12
-9.90010E-13
-5.70914E-13
 1.21678E-13
 6.06572E-13
-2.70369E-12
 4.72374E-12
 3.94886E-13
 2.18939E-12
 2.33940E-12
 5.71791E-13
 4.03966E-13
 2.82059E-12
 7.75161E-12
 9.38276E-12
 1.30150E-11
 1.04489E-11
 7.05941E-12
 1.96068E-12
 1.04580E-12
 2.67421E-12
 5.56710E-12
 8.15004E-12
 7.84215E-12
 4.88783E-12
 2.84677E-12
 4.04407E-13
CELL_DATA         140
SCALARS elemDataMatch  float  1
LOOKUP_TABLE default
 0.00000E+00
 2.57674E-13
 2.57674E-13
 1.94743E-13
 8.54875E-14
 6.61500E-14
 1.02186E-14
 2.93476E-13
 3.42410E-13
 2.56894E-13
 9.11542E-14
 3.09165E-13
 1.15433E-13
 1.15433E-13
 2.57674E-13
 2.75089E-13
 2.02727E-13
 6.36873E-14
 5.76169E-14
 7.40535E-14
 5.60926E-13
 7.32697E-13
 2.90153E-13
 8.45684E-14
 2.09897E-13
 4.55298E-13
 6.22267E-13
 3.15880E-13
 1.04061E-15
 4.38906E-15
 1.48056E-14
 1.41618E-13
 1.05949E-13
 1.60387E-13
 2.96114E-13
 1.00257E-12
 1.04243E-12
 1.18503E-12
 2.16473E-13
 3.31542E-13
 2.99668E-13
 2.82525E-13
 1.93093E-15
 5.05421E-14
 8.46935E-14
 1.31022E-13
 1.25950E-13
 6.89890E-13
 1.68744E-12
 9.10491E-13
 6.02617E-13
 2.17001E-13
 7.89415E-13
 6.55011E-13
 3.29446E-13
 5.94347E-15
 5.93130E-14
 4.49679E-14
 1.51122E-13
 5.81184E-14
 3.47439E-13
 9.13739E-13
 7.48772E-13
 5.04074E-13
 4.67924E-13
 3.10774E-13
 1.30023E-13
 9.38813E-14
 6.09979E-14
 3.96946E-14
 9.95830E-15
 1.06805E-13
 2.13744E-13
 6.49170E-13
 3.95480E-13
 4.74775E-13
 4.19068E-13
 6.02135E-13
 5.65192E-13
 1.49991E-13
 9.42653E-14
 1.55315E-13
 1.05489E-13
 3.08186E-14
 7.03737E-14
 3.99770E-13
 4.26226E-13
 5.61680E-13
 4.35851E-13
 2.23691E-13
 4.20414E-13
 9.36521E-14
 1.56866E-14
 1.86268E-13
 1.69428E-13
 9.08822E-13
 3.98009E-13
 4.90088E-13
 5.20849E-13
 4.05291E-13
 5.62357E-13
 6.64669E-13
 4.34816E-13
 1.72702E-12
 6.99685E-13
 1.77003E-12
 1.35119E-12
 1.64821E-12
 1.27615E-12
 9.56551E-13
 7.96152E-13
 9.28013E-14
 2.32233E-13
 2.08908E-13
 6.15244E-13
 3.00292E-13
 1.34192E-12
 7.51653E-13
 2.30102E-12
 1.53115E-12
 1.37487E-12
 3.64579E-13
 3.15585E-13
 1.57931E-13
 6.98080E-14
 2.77912E-14
 1.82604E-13
 1.82604E-13
 1.71812E-13
 7.26542E-16
 6.37208E-14
 5.65826E-14
 2.64292E-13
 1.23960E-13
 2.62580E-13
 5.56005E-14
 4.40826E-14
 2.77912E-14
 2.77912E-14
 0.00000E+00
SCALARS elemRegul  float  1
LOOKUP_TABLE default
 6.66786E-15
 6.05215E-14
 5.02896E-14
 4.63166E-14
 2.62892E-14
 6.06488E-15
 2.49899E-15
 1.28609E-14
 1.48554E-14
 1.48554E-14
 1.52086E-14
 7.48685E-14
 5.50470E-14
 5.50470E-14
 4.24343E-14
 1.76242E-14
 4.41153E-14
 7.93767E-14
 7.35656E-14
 5.58883E-14
 3.77874E-14
 2.51531E-14
 2.67913E-14
 3.01652E-14
 6.06992E-14
 3.24029E-14
 6.15353E-14
 1.88908E-14
 1.52855E-13
 1.78483E-13
 1.76623E-13
 2.26149E-13
 2.18757E-13
 4.24462E-13
 3.99663E-13
 5.39858E-13
 5.25958E-13
 4.50472E-13
 4.41504E-13
 3.40588E-13
 3.11253E-13
 2.62609E-13
 1.52318E-13
 1.97342E-13
 1.95800E-13
 3.72681E-13
 3.44391E-13
 3.68507E-13
 3.53090E-13
 2.64016E-13
 2.74404E-13
 2.91303E-13
 3.15814E-13
 3.02046E-13
 2.50289E-13
 2.22252E-13
 1.04824E-13
 7.40036E-14
 2.08256E-13
 2.39386E-13
 1.78300E-13
 1.42844E-13
 6.99807E-14
 8.96414E-15
 6.54677E-14
 7.18324E-14
 1.78760E-13
 1.39371E-13
 1.16265E-13
 1.15618E-13
 6.74898E-14
 6.69508E-14
 2.31684E-13
 2.03201E-13
 1.63270E-13
 1.77260E-13
 6.10527E-14
 7.29096E-14
 1.02204E-13
 9.22235E-14
 1.46715E-13
 7.01307E-14
 1.05145E-13
 2.27887E-13
 1.73320E-13
 1.62560E-13
 2.33914E-13
 2.32823E-13
 2.33911E-13
 2.46753E-13
 2.21030E-13
 2.04960E-13
 2.14678E-13