# vtk DataFile Version 2.0
Output of NLACE
ASCII
DATASET UNSTRUCTURED_GRID
POINTS           88 FLOAT
 6.000000E-01  2.500000E-01  0.000000E+00
 6.500000E-01  2.500000E-01  0.000000E+00
 7.000000E-01  2.500000E-01  0.000000E+00
 7.500000E-01  2.500000E-01  0.000000E+00
 8.000000E-01  2.500000E-01  0.000000E+00
 8.500000E-01  2.500000E-01  0.000000E+00
 9.000000E-01  2.500000E-01  0.000000E+00
 9.500000E-01  2.500000E-01  0.000000E+00
 6.000000E-01  3.000000E-01  0.000000E+00
 6.500000E-01  3.000000E-01  0.000000E+00
 7.000000E-01  3.000000E-01  0.000000E+00
 7.500000E-01  3.000000E-01  0.000000E+00
 8.000000E-01  3.000000E-01  0.000000E+00
 8.500000E-01  3.000000E-01  0.000000E+00
 9.000000E-01  3.000000E-01  0.000000E+00
 9.500000E-01  3.000000E-01  0.000000E+00
 6.000000E-01  3.500000E-01  0.000000E+00
 6.500000E-01  3.500000E-01  0.000000E+00
 7.000000E-01  3.500000E-01  0.000000E+00
 7.500000E-01  3.500000E-01  0.000000E+00
 8.000000E-01  3.500000E-01  0.000000E+00
 8.500000E-01  3.500000E-01  0.000000E+00
 9.000000E-01  3.500000E-01  0.000000E+00
 9.500000E-01  3.500000E-01  0.000000E+00
 6.000000E-01  4.000000E-01  0.000000E+00
 6.500000E-01  4.000000E-01  0.000000E+00
 7.000000E-01  4.000000E-01  0.000000E+00
 7.500000E-01  4.000000E-01  0.000000E+00
 8.000000E-01  4.000000E-01  0.000000E+00
 8.500000E-01  4.000000E-01  0.000000E+00
 9.000000E-01  4.000000E-01  0.000000E+00
 9.500000E-01  4.000000E-01  0.000000E+00
 6.000000E-01  4.500000E-01  0.000000E+00
 6.500000E-01  4.500000E-01  0.000000E+00
 7.000000E-01  4.500000E-01  0.000000E+00
 7.500000E-01  4.500000E-01  0.000000E+00
 8.000000E-01  4.500000E-01  0.000000E+00
 8.500000E-01  4.500000E-01  0.000000E+00
 9.000000E-01  4.500000E-01  0.000000E+00
 9.500000E-01  4.500000E-01  0.000000E+00
 6.000000E-01  5.000000E-01  0.000000E+00
 6.500000E-01  5.000000E-01  0.000000E+00
 7.000000E-01  5.000000E-01  0.000000E+00
 7.500000E-01  5.000000E-01  0.000000E+00
 8.000000E-01  5.000000E-01  0.000000E+00
 8.500000E-01  5.000000E-01  0.000000E+00
 9.000000E-01  5.000000E-01  0.000000E+00
 9.500000E-01  5.000000E-01  0.000000E+00
 6.000000E-01  5.500000E-01  0.000000E+00
 6.500000E-01  5.500000E-01  0.000000E+00
 7.000000E-01  5.500000E-01  0.000000E+00
 7.500000E-01  5.500000E-01  0.000000E+00
 8.000000E-01  5.500000E-01  0.000000E+00
 8.500000E-01  5.500000E-01  0.000000E+00
 9.000000E-01  5.500000E-01  0.000000E+00
 9.500000E-01  5.500000E-01  0.000000E+00
 6.000000E-01  6.000000E-01  0.000000E+00
 6.500000E-01  6.000000E-01  0.000000E+00
 7.000000E-01  6.000000E-01  0.000000E+00
 7.500000E-01  6.000000E-01  0.000000E+00
 8.000000E-01  6.000000E-01  0.000000E+00
 8.500000E-01  6.000000E-01  0.000000E+00
 9.000000E-01  6.000000E-01  0.000000E+00
 9.500000E-01  6.000000E-01  0.000000E+00
 6.000000E-01  6.500000E-01  0.000000E+00
 6.500000E-01  6.500000E-01  0.000000E+00
 7.000000E-01  6.500000E-01  0.000000E+00
 7.500000E-01  6.500000E-01  0.000000E+00
 8.000000E-01  6.500000E-01  0.000000E+00
 8.500000E-01  6.500000E-01  0.000000E+00
 9.000000E-01  6.500000E-01  0.000000E+00
 9.500000E-01  6.500000E-01  0.000000E+00
 6.000000E-01  7.000000E-01  0.000000E+00
 6.500000E-01  7.000000E-01  0.000000E+00
 7.000000E-01  7.000000E-01  0.000000E+00
 7.500000E-01  7.000000E-01  0.000000E+00
 8.000000E-01  7.000000E-01  0.000000E+00
 8.500000E-01  7.000000E-01  0.000000E+00
 9.000000E-01  7.000000E-01  0.000000E+00
 9.500000E-01  7.000000E-01  0.000000E+00
 6.000000E-01  7.500000E-01  0.000000E+00
 6.500000E-01  7.500000E-01  0.000000E+00
 7.000000E-01  7.500000E-01  0.000000E+00
 7.500000E-01  7.500000E-01  0.000000E+00
 8.000000E-01  7.500000E-01  0.000000E+00
 8.500000E-01  7.500000E-01  0.000000E+00
 9.000000E-01  7.500000E-01  0.000000E+00
 9.500000E-01  7.500000E-01  0.000000E+00
CELLS          140         560
           3           0           1           8
           3           1           9           8
           3           1           2           9
           3           2          10           9
           3           2           3          10
           3           3          11          10
           3           3           4          11
           3           4          12          11
           3           4           5          12
           3           5          13          12
           3           5           6          13
           3           6          14          13
           3           6           7          14
           3           7          15          14
           3           8           9          16
           3           9          17          16
           3           9          10          17
           3          10          18          17
           3          10          11          18
           3          11          19          18
           3          11          12          19
           3          12          20          19
           3          12          13          20
           3          13          21          20
           3          13          14          21
           3          14          22          21
           3          14          15          22
           3          15          23          22
           3          16          17          24
           3          17          25          24
           3          17          18          25
           3          18          26          25
           3          18          19          26
           3          19          27          26
           3          19          20          27
           3          20          28          27
           3          20          21          28
           3          21          29          28
           3          21          22          29
           3          22          30          29
           3          22          23          30
           3          23          31          30
           3          24          25          32
           3          25          33          32
           3          25          26          33
           3          26          34          33
           3          26          27          34
           3          27          35          34
           3          27          28          35
           3          28          36          35
           3          28          29          36
           3          29          37          36
           3          29          30          37
           3          30          38          37
           3          30          31          38
           3          31          39          38
           3          32          33          40
           3          33          41          40
           3          33          34          41
           3          34          42          41
           3          34          35          42
           3          35          43          42
           3          35          36          43
           3          36          44          43
           3          36          37          44
           3          37          45          44
           3          37          38          45
           3          38          46          45
           3          38          39          46
           3          39          47          46
           3          40          41          48
           3          41          49          48
           3          41          42          49
           3          42          50          49
           3          42          43          50
           3          43          51          50
           3          43          44          51
           3          44          52          51
           3          44          45          52
           3          45          53          52
           3          45          46          53
           3          46          54          53
           3          46          47          54
           3          47          55          54
           3          48          49          56
           3          49          57          56
           3          49          50          57
           3          50          58          57
           3          50          51          58
           3          51          59          58
           3          51          52          59
           3          52          60          59
           3          52          53          60
           3          53          61          60
           3          53          54          61
           3          54          62          61
           3          54          55          62
           3          55          63          62
           3          56          57          64
           3          57          65          64
           3          57          58          65
           3          58          66          65
           3          58          59          66
           3          59          67          66
           3          59          60          67
           3          60          68          67
           3          60          61          68
           3          61          69          68
           3          61          62          69
           3          62          70          69
           3          62          63          70
           3          63          71          70
           3          64          65          72
           3          65          73          72
           3          65          66          73
           3          66          74          73
           3          66          67          74
           3          67          75          74
           3          67          68          75
           3          68          76          75
           3          68          69          76
           3          69          77          76
           3          69          70          77
           3          70          78          77
           3          70          71          78
           3          71          79          78
           3          72          73          80
           3          73          81          80
           3          73          74          81
           3          74          82          81
           3          74          75          82
           3          75          83          82
           3          75          76          83
           3          76          84          83
           3          76          77          84
           3          77          85          84
           3          77          78          85
           3          78          86          85
           3          78          79          86
           3          79          87          86
CELL_TYPES          140
5
5
5
5
5
5
5
5
5
5
5
5
5
5
5
5
5
5
5
5
5
5
5
5
5
5
5
5
5
5
5
5
5
5
5
5
5
5
5
5
5
5
5
5
5
5
5
5
5
5
5
5
5
5
5
5
5
5
5
5
5
5
5
5
5
5
5
5
5
5
5
5
5
5
5
5
5
5
5
5
5
5
5
5
5
5
5
5
5
5
5
5
5
5
5
5
5
5
5
5
5
5
5
5
5
5
5
5
5
5
5
5
5
5
5
5
5
5
5
5
5
5
5
5
5
5
5
5
5
5
5
5
5
5
5
5
5
5
5
5
POINT_DATA           88
 SCALARS measuredDisp11 float  1                   
LOOKUP_TABLE default
 1.60000E-04
 2.36000E-04
 3.78000E-04
 5.10000E-04
 5.99000E-04
 7.16000E-04
 8.28000E-04
 9.85000E-04
 1.80000E-04
 2.39000E-04
 4.14000E-04
 4.16000E-04
 5.88000E-04
 7.34000E-04
 8.06000E-04
 9.81000E-04
 1.76000E-04
 3.33000E-04
 3.51000E-04
 3.74000E-04
 5.56000E-04
 6.67000E-04
 7.67000E-04
 8.85000E-04
 2.18000E-04
 3.55000E-04
 4.39000E-04
 5.02000E-04
 5.04000E-04
 5.75000E-04
 6.77000E-04
 7.85000E-04
 2.65000E-04
 4.09000E-04
 5.20000E-04
 5.11000E-04
 5.49000E-04
 5.82000E-04
 5.87000E-04
 8.10000E-04
 2.37000E-04
 3.57000E-04
 5.39000E-04
 4.27000E-04
 5.30000E-04
 6.13000E-04
 6.18000E-04
 6.40000E-04
 2.28000E-04
 3.42000E-04
 5.19000E-04
 4.62000E-04
 5.10000E-04
 6.02000E-04
 5.97000E-04
 8.01000E-04
 1.86000E-04
 3.10000E-04
 4.09000E-04
 5.36000E-04
 5.25000E-04
 5.93000E-04
 6.97000E-04
 7.79000E-04
 1.95000E-04
 2.72000E-04
 3.78000E-04
 4.81000E-04
 5.57000E-04
 6.59000E-04
 8.34000E-04
 8.67000E-04
 1.60000E-04
 2.57000E-04
 4.53000E-04
 4.60000E-04
 5.96000E-04
 7.29000E-04
 8.04000E-04
 9.40000E-04
 1.89000E-04
 2.52000E-04
 3.96000E-04
 4.41000E-04
 5.92000E-04
 7.39000E-04
 9.06000E-04
 9.78000E-04
 SCALARS measuredDisp12 float  1                   
LOOKUP_TABLE default
 1.52300E-03
 1.49400E-03
 1.47800E-03
 1.37500E-03
 1.37100E-03
 1.43200E-03
 1.39700E-03
 1.51600E-03
 1.38600E-03
 1.43000E-03
 1.32100E-03
 1.30900E-03
 1.23200E-03
 1.34200E-03
 1.36900E-03
 1.42900E-03
 1.33200E-03
 1.28300E-03
 1.24700E-03
 1.17400E-03
 1.18700E-03
 1.18400E-03
 1.29500E-03
 1.29500E-03
 1.24200E-03
 1.18800E-03
 1.17600E-03
 1.10000E-03
 1.03800E-03
 1.10900E-03
 1.10200E-03
 1.21700E-03
 1.17100E-03
 1.07600E-03
 1.04500E-03
 1.00900E-03
 1.10900E-03
 1.02900E-03
 1.06300E-03
 1.06500E-03
 1.01900E-03
 1.01900E-03
 1.02100E-03
 9.31000E-04
 1.04200E-03
 1.03900E-03
 9.84000E-04
 9.95000E-04
 8.93000E-04
 9.46000E-04
 9.82000E-04
 9.78000E-04
 9.54000E-04
 9.32000E-04
 9.23000E-04
 9.56000E-04
 7.84000E-04
 7.58000E-04
 8.28000E-04
 9.00000E-04
 8.74000E-04
 9.25000E-04
 9.24000E-04
 8.07000E-04
 6.60000E-04
 7.70000E-04
 8.23000E-04
 8.59000E-04
 8.85000E-04
 8.07000E-04
 7.87000E-04
 7.12000E-04
 6.24000E-04
 5.67000E-04
 6.54000E-04
 7.09000E-04
 7.34000E-04
 7.27000E-04
 6.30000E-04
 5.98000E-04
 5.12000E-04
 4.59000E-04
 5.47000E-04
 5.89000E-04
 5.95000E-04
 6.48000E-04
 5.20000E-04
 5.02000E-04
 SCALARS measuredDisp13 float  1                   
LOOKUP_TABLE default
 4.29600E-03
 4.18100E-03
 3.88600E-03
 3.35800E-03
 2.89100E-03
 2.65600E-03
 2.88000E-03
 3.45500E-03
 3.90000E-03
 4.22100E-03
 4.36400E-03
 4.57000E-03
 4.40600E-03
 4.19500E-03
 3.50900E-03
 2.40800E-03
 1.94000E-03
 2.46100E-03
 3.62000E-03
 4.16300E-03
 4.47600E-03
 4.46600E-03
 4.78600E-03
 4.80500E-03
 4.93700E-03
 4.25500E-03
 2.31600E-03
 1.88700E-03
 2.38500E-03
 4.28500E-03
 4.91200E-03
 4.83700E-03
 4.72200E-03
 4.96400E-03
 5.38100E-03
 6.06900E-03
 6.07100E-03
 4.27400E-03
 4.92200E-03
 4.25300E-03
 6.04200E-03
 5.92800E-03
 5.38200E-03
 4.95300E-03
 5.07000E-03
 5.52600E-03
 6.50000E-03
 6.48300E-03
 4.17200E-03
 4.60700E-03
 4.15100E-03
 6.49300E-03
 6.53600E-03
 5.54200E-03
 4.97000E-03
 4.91300E-03
 5.20500E-03
 5.77700E-03
 5.89600E-03
 4.72800E-03
 5.21500E-03
 4.68700E-03
 5.95300E-03
 5.91800E-03
 5.28800E-03
 4.83100E-03
 4.44600E-03
 4.59100E-03
 4.75900E-03
 4.39000E-03
 3.38200E-03
 3.30100E-03
 3.37800E-03
 4.42100E-03
 4.84600E-03
 4.59600E-03
 4.50300E-03
 4.02500E-03
 4.02900E-03
 4.05400E-03
 3.98400E-03
 3.87100E-03
 3.62800E-03
 3.77000E-03
 3.99600E-03
 4.05500E-03
 4.02200E-03
 4.00000E-03
 SCALARS predictedDisp11 float  1                  
LOOKUP_TABLE default
 2.12920E-04
 2.99495E-04
 3.78000E-04
 4.82701E-04
 6.06909E-04
 7.03380E-04
 8.16008E-04
 9.16340E-04
 2.26925E-04
 3.17186E-04
 4.12056E-04
 5.04255E-04
 5.96755E-04
 6.88494E-04
 7.74648E-04
 8.52247E-04
 2.29953E-04
 3.28456E-04
 4.24239E-04
 5.12081E-04
 5.95435E-04
 6.77561E-04
 7.57458E-04
 8.39171E-04
 2.44117E-04
 3.40541E-04
 4.33777E-04
 5.18820E-04
 5.98131E-04
 6.76007E-04
 7.54811E-04
 8.33064E-04
 2.61308E-04
 3.56237E-04
 4.44772E-04
 5.26391E-04
 6.03750E-04
 6.80909E-04
 7.60654E-04
 8.45462E-04
 2.75981E-04
 3.64622E-04
 4.50755E-04
 5.31655E-04
 6.09585E-04
 6.88747E-04
 7.73673E-04
 8.68294E-04
 2.65025E-04
 3.59190E-04
 4.48729E-04
 5.31615E-04
 6.10576E-04
 6.89509E-04
 7.71731E-04
 8.55451E-04
 2.50406E-04
 3.46880E-04
 4.40203E-04
 5.26880E-04
 6.08267E-04
 6.87358E-04
 7.67396E-04
 8.52344E-04
 2.23867E-04
 3.25792E-04
 4.27275E-04
 5.20276E-04
 6.06773E-04
 6.90927E-04
 7.75311E-04
 8.64739E-04
 2.03631E-04
 3.11639E-04
 4.14115E-04
 5.11197E-04
 6.05317E-04
 6.99952E-04
 7.91658E-04
 8.84212E-04
 2.22162E-04
 3.05308E-04
 3.81974E-04
 4.90863E-04
 5.96498E-04
 7.16847E-04
 8.35816E-04
 9.15253E-04
 SCALARS predictedDisp12 float  1                  
LOOKUP_TABLE default
 1.52300E-03
 1.49400E-03
 1.47800E-03
 1.37500E-03
 1.37100E-03
 1.43200E-03
 1.39700E-03
 1.51600E-03
 1.38600E-03
 1.38883E-03
 1.36314E-03
 1.31538E-03
 1.30613E-03
 1.32760E-03
 1.34548E-03
 1.42900E-03
 1.33200E-03
 1.29665E-03
 1.26649E-03
 1.23804E-03
 1.22967E-03
 1.24072E-03
 1.26103E-03
 1.29500E-03
 1.24200E-03
 1.20354E-03
 1.17614E-03
 1.15778E-03
 1.15267E-03
 1.16002E-03
 1.17709E-03
 1.21700E-03
 1.17100E-03
 1.11349E-03
 1.09015E-03
 1.07927E-03
 1.07688E-03
 1.08019E-03
 1.08332E-03
 1.06500E-03
 1.01900E-03
 1.01056E-03
 1.00379E-03
 1.00067E-03
 1.00065E-03
 1.00230E-03
 1.00288E-03
 9.95000E-04
 8.93000E-04
 9.08682E-04
 9.15925E-04
 9.20805E-04
 9.23488E-04
 9.23616E-04
 9.25180E-04
 9.56000E-04
 7.84000E-04
 8.08218E-04
 8.26809E-04
 8.39939E-04
 8.45743E-04
 8.43037E-04
 8.29930E-04
 8.07000E-04
 6.60000E-04
 7.02756E-04
 7.32868E-04
 7.55438E-04
 7.66161E-04
 7.64041E-04
 7.38411E-04
 7.12000E-04
 6.24000E-04
 6.00415E-04
 6.37675E-04
 6.69939E-04
 6.83714E-04
 6.90275E-04
 6.37863E-04
 5.98000E-04
 5.12000E-04
 4.59000E-04
 5.47000E-04
 5.89000E-04
 5.95000E-04
 6.48000E-04
 5.20000E-04
 5.02000E-04
 SCALARS predictedDisp13 float  1                  
LOOKUP_TABLE default
 4.11417E-03
 3.98100E-03
 3.59571E-03
 2.98594E-03
 2.77122E-03
 2.94806E-03
 2.96238E-03
 3.06738E-03
 3.89618E-03
 3.78612E-03
 3.51063E-03
 3.08823E-03
 3.00147E-03
 3.12026E-03
 3.23399E-03
 3.44446E-03
 3.69034E-03
 3.69674E-03
 3.56734E-03
 3.35898E-03
 3.31458E-03
 3.43508E-03
 3.62440E-03
 3.76163E-03
 3.82386E-03
 3.81725E-03
 3.72883E-03
 3.59975E-03
 3.56389E-03
 3.65273E-03
 3.81507E-03
 3.97325E-03
 4.23176E-03
 4.16742E-03
 3.96538E-03
 3.79649E-03
 3.72356E-03
 3.75981E-03
 3.87616E-03
 3.91214E-03
 4.57555E-03
 4.38547E-03
 4.11402E-03
 3.90226E-03
 3.78096E-03
 3.73563E-03
 3.70599E-03
 3.64600E-03
 4.51775E-03
 4.35987E-03
 4.11392E-03
 3.90363E-03
 3.78095E-03
 3.75103E-03
 3.78192E-03
 3.87427E-03
 4.34396E-03
 4.23557E-03
 4.01874E-03
 3.81695E-03
 3.71189E-03
 3.74744E-03
 3.93863E-03
 4.05979E-03
 4.05899E-03
 4.02710E-03
 3.87856E-03
 3.65565E-03
 3.52779E-03
 3.55598E-03
 3.79951E-03
 3.95009E-03
 4.07749E-03
 4.14817E-03
 3.85640E-03
 3.47959E-03
 3.28055E-03
 3.26304E-03
 3.65397E-03
 3.87549E-03
 4.41294E-03
 4.32056E-03
 3.81581E-03
 3.36856E-03
 3.08700E-03
 3.09104E-03
 3.62066E-03
 3.80584E-03
 SCALARS dual11 float  1                           
LOOKUP_TABLE default
-2.10588E-08
-9.73653E-09
 0.00000E+00
 1.82716E-08
 4.24819E-08
 6.70301E-08
 8.37576E-08
 9.98699E-08
-1.15798E-08
-2.08010E-09
 8.59538E-09
 2.33781E-08
 4.33643E-08
 5.96410E-08
 7.15104E-08
 8.52647E-08
 1.92986E-08
 2.43755E-08
 2.83653E-08
 3.35660E-08
 3.82156E-08
 4.09004E-08
 4.22913E-08
 4.77812E-08
 6.34388E-08
 5.87604E-08
 5.34757E-08
 4.52636E-08
 3.25200E-08
 1.64087E-08
 5.54724E-09
-4.61575E-09
 1.02879E-07
 8.89374E-08
 7.46247E-08
 5.36136E-08
 2.47066E-08
-2.70802E-09
-2.56332E-08
-4.70955E-08
 1.20402E-07
 1.00562E-07
 8.10438E-08
 5.39377E-08
 2.05411E-08
-9.62403E-09
-3.48385E-08
-6.10718E-08
 1.03172E-07
 8.64108E-08
 7.03805E-08
 4.73330E-08
 2.28567E-08
 1.08489E-09
-1.87066E-08
-3.95302E-08
 5.68357E-08
 5.15565E-08
 4.46355E-08
 3.60763E-08
 2.91804E-08
 2.31213E-08
 1.97190E-08
 1.66515E-08
-1.94356E-09
 3.82896E-09
 1.10111E-08
 2.24498E-08
 3.72011E-08
 5.43573E-08
 7.05882E-08
 8.50945E-08
-5.71927E-08
-3.67297E-08
-1.63058E-08
 1.27235E-08
 4.81750E-08
 8.25804E-08
 1.11286E-07
 1.36016E-07
-8.10040E-08
-5.42486E-08
-2.64003E-08
 1.15836E-08
 5.53946E-08
 9.50390E-08
 1.24947E-07
 1.50607E-07
 SCALARS dual12 float  1                           
LOOKUP_TABLE default
 0.00000E+00
 0.00000E+00
 0.00000E+00
 0.00000E+00
 0.00000E+00
 0.00000E+00
 0.00000E+00
 0.00000E+00
 0.00000E+00
-5.44589E-09
-3.93471E-08
-5.89914E-08
-7.13406E-08
-3.82235E-08
-7.73305E-09
 0.00000E+00
 0.00000E+00
-2.44079E-08
-6.15156E-08
-1.01610E-07
-1.09558E-07
-7.72977E-08
-2.62281E-08
 0.00000E+00
 0.00000E+00
-2.93607E-08
-6.27490E-08
-1.06048E-07
-1.13707E-07
-8.21545E-08
-4.91058E-08
 0.00000E+00
 0.00000E+00
-2.35233E-08
-4.52433E-08
-6.74947E-08
-4.26780E-08
-3.73178E-08
-2.46783E-08
 0.00000E+00
 0.00000E+00
 8.10460E-09
 1.34887E-08
 9.39243E-09
 4.00314E-08
 3.44558E-08
 1.14013E-08
 0.00000E+00
 0.00000E+00
 3.66003E-08
 7.32705E-08
 9.87233E-08
 1.08510E-07
 8.87131E-08
 5.14410E-08
 0.00000E+00
 0.00000E+00
 3.67857E-08
 9.97175E-08
 1.49401E-07
 1.57876E-07
 1.42861E-07
 9.25802E-08
 0.00000E+00
 0.00000E+00
 5.44817E-08
 1.18733E-07
 1.65903E-07
 1.75924E-07
 1.39484E-07
 8.05723E-08
 0.00000E+00
 0.00000E+00
 2.45681E-08
 6.77105E-08
 1.00811E-07
 1.06392E-07
 8.14299E-08
 3.87689E-08
 0.00000E+00
 0.00000E+00
 0.00000E+00
 0.00000E+00
 0.00000E+00
 0.00000E+00
 0.00000E+00
 0.00000E+00
 0.00000E+00
 SCALARS dual13 float  1                           
LOOKUP_TABLE default
-4.85298E-07
-6.35028E-07
-1.02918E-06
-1.37624E-06
-1.47586E-06
-1.22172E-06
-8.11743E-07
-5.94945E-07
-4.14950E-07
-5.81225E-07
-8.94601E-07
-1.15293E-06
-1.19257E-06
-9.87132E-07
-6.83250E-07
-5.32823E-07
-1.85784E-07
-2.65705E-07
-3.70985E-07
-4.60516E-07
-4.65764E-07
-4.12477E-07
-3.21704E-07
-2.72982E-07
 1.97766E-07
 2.37912E-07
 3.76529E-07
 5.15996E-07
 6.04432E-07
 5.07896E-07
 3.33267E-07
 2.42960E-07
 5.70488E-07
 7.53224E-07
 1.14211E-06
 1.48272E-06
 1.58306E-06
 1.34955E-06
 9.54843E-07
 7.05920E-07
 7.70384E-07
 1.02882E-06
 1.51795E-06
 1.89535E-06
 1.92963E-06
 1.63999E-06
 1.18751E-06
 9.10346E-07
 6.13541E-07
 8.28001E-07
 1.24289E-06
 1.55861E-06
 1.57112E-06
 1.36754E-06
 1.02262E-06
 8.00191E-07
 2.08314E-07
 3.35481E-07
 5.34545E-07
 6.68223E-07
 6.72588E-07
 5.55023E-07
 3.64649E-07
 2.80005E-07
-2.54025E-07
-3.18536E-07
-4.88031E-07
-6.21504E-07
-6.78696E-07
-6.45302E-07
-5.11706E-07
-3.72047E-07
-7.52905E-07
-9.73500E-07
-1.42173E-06
-1.76284E-06
-1.81637E-06
-1.55781E-06
-1.11220E-06
-8.22362E-07
-9.20500E-07
-1.24125E-06
-1.81381E-06
-2.20919E-06
-2.21252E-06
-1.81876E-06
-1.24334E-06
-9.44211E-07
 SCALARS NLP float  1                              
LOOKUP_TABLE default
 0.00000E+00
 0.00000E+00
 0.00000E+00
 0.00000E+00
 0.00000E+00
 0.00000E+00
 0.00000E+00
 0.00000E+00
 0.00000E+00
 0.00000E+00
 0.00000E+00
 0.00000E+00
 0.00000E+00
 0.00000E+00
 0.00000E+00
 0.00000E+00
 0.00000E+00
 0.00000E+00
 0.00000E+00
 0.00000E+00
 0.00000E+00
 0.00000E+00
 0.00000E+00
 0.00000E+00
 0.00000E+00
 0.00000E+00
 0.00000E+00
 0.00000E+00
 0.00000E+00
 0.00000E+00
 0.00000E+00
 0.00000E+00
 0.00000E+00
 0.00000E+00
 0.00000E+00
 0.00000E+00
 0.00000E+00
 0.00000E+00
 0.00000E+00
 0.00000E+00
 0.00000E+00
 0.00000E+00
 0.00000E+00
 0.00000E+00
 0.00000E+00
 0.00000E+00
 0.00000E+00
 0.00000E+00
 0.00000E+00
 0.00000E+00
 0.00000E+00
 0.00000E+00
 0.00000E+00
 0.00000E+00
 0.00000E+00
 0.00000E+00
 0.00000E+00
 0.00000E+00
 0.00000E+00
 0.00000E+00
 0.00000E+00
 0.00000E+00
 0.00000E+00
 0.00000E+00
 0.00000E+00
 0.00000E+00
 0.00000E+00
 0.00000E+00
 0.00000E+00
 0.00000E+00
 0.00000E+00
 0.00000E+00
 0.00000E+00
 0.00000E+00
 0.00000E+00
 0.00000E+00
 0.00000E+00
 0.00000E+00
 0.00000E+00
 0.00000E+00
 0.00000E+00
 0.00000E+00
 0.00000E+00
 0.00000E+00
 0.00000E+00
 0.00000E+00
 0.00000E+00
 0.00000E+00
 SCALARS SM float  1                               
LOOKUP_TABLE default
 1.03811E+00
 1.04041E+00
 1.03797E+00
 1.03630E+00
 1.03552E+00
 1.03637E+00
 1.03719E+00
 1.03694E+00
 1.04543E+00
 1.04256E+00
 1.03540E+00
 1.03643E+00
 1.03203E+00
 1.03810E+00
 1.05101E+00
 1.04169E+00
 1.04716E+00
 1.03856E+00
 1.05136E+00
 1.04127E+00
 1.04318E+00
 1.04763E+00
 1.04298E+00
 1.05282E+00
 1.05771E+00
 1.05800E+00
 1.06298E+00
 1.06888E+00
 1.07368E+00
 1.06922E+00
 1.06008E+00
 1.06770E+00
 1.07065E+00
 1.06907E+00
 1.08069E+00
 1.09031E+00
 1.09304E+00
 1.08301E+00
 1.08184E+00
 1.07420E+00
 1.07227E+00
 1.07547E+00
 1.08164E+00
 1.07710E+00
 1.07501E+00
 1.08183E+00
 1.07003E+00
 1.07775E+00
 1.07833E+00
 1.06427E+00
 1.07673E+00
 1.09596E+00
 1.08844E+00
 1.08455E+00
 1.07449E+00
 1.06989E+00
 1.05781E+00
 1.05747E+00
 1.06413E+00
 1.06330E+00
 1.06217E+00
 1.05719E+00
 1.05366E+00
 1.05256E+00
 1.03969E+00
 1.04040E+00
 1.03400E+00
 1.02488E+00
 1.02533E+00
 1.02512E+00
 1.02718E+00
 1.03252E+00
 1.04595E+00
 1.01130E+00
 1.01439E+00
 1.01015E+00
 1.00000E+00
 1.02335E+00
 1.01378E+00
 1.03179E+00
 1.02283E+00
 1.02307E+00
 1.01062E+00
 1.00372E+00
 1.00719E+00
 1.00729E+00
 1.02447E+00
 1.03110E+00
 SCALARS gradient1 float  1                        
LOOKUP_TABLE default
 0.00000E+00
 0.00000E+00
 0.00000E+00
 0.00000E+00
 0.00000E+00
 0.00000E+00
 0.00000E+00
 0.00000E+00
 0.00000E+00
 0.00000E+00
 0.00000E+00
 0.00000E+00
 0.00000E+00
 0.00000E+00
 0.00000E+00
 0.00000E+00
 0.00000E+00
 0.00000E+00
 0.00000E+00
 0.00000E+00
 0.00000E+00
 0.00000E+00
 0.00000E+00
 0.00000E+00
 0.00000E+00
 0.00000E+00
 0.00000E+00
 0.00000E+00
 0.00000E+00
 0.00000E+00
 0.00000E+00
 0.00000E+00
 0.00000E+00
 0.00000E+00
 0.00000E+00
 0.00000E+00
 0.00000E+00
 0.00000E+00
 0.00000E+00
 0.00000E+00
 0.00000E+00
 0.00000E+00
 0.00000E+00
 0.00000E+00
 0.00000E+00
 0.00000E+00
 0.00000E+00
 0.00000E+00
 0.00000E+00
 0.00000E+00
 0.00000E+00
 0.00000E+00
 0.00000E+00
 0.00000E+00
 0.00000E+00
 0.00000E+00
 0.00000E+00
 0.00000E+00
 0.00000E+00
 0.00000E+00
 0.00000E+00
 0.00000E+00
 0.00000E+00
 0.00000E+00
 0.00000E+00
 0.00000E+00
 0.00000E+00
 0.00000E+00
 0.00000E+00
 0.00000E+00
 0.00000E+00
 0.00000E+00
 0.00000E+00
 0.00000E+00
 0.00000E+00
 0.00000E+00
 0.00000E+00
 0.00000E+00
 0.00000E+00
 0.00000E+00
 0.00000E+00
 0.00000E+00
 0.00000E+00
 0.00000E+00
 0.00000E+00
 0.00000E+00
 0.00000E+00
 0.00000E+00
 SCALARS gradient2 float  1                        
LOOKUP_TABLE default
-1.20148E-12
 9.90776E-13
 5.28431E-12
 6.30434E-12
 7.72789E-12
 4.58575E-12
 1.21774E-12
 1.82331E-13
 3.75193E-12
 7.48916E-12
 1.12876E-12
 1.26584E-11
 2.90265E-12
 7.73498E-12
 1.15841E-11
-1.42653E-12
 2.71376E-12
-3.96905E-12
 7.15746E-12
 1.02883E-12
 3.10738E-12
 3.99503E-12
-4.10382E-12
 1.74640E-12
-5.22362E-13
-2.30140E-12
-1.99530E-12
-3.79682E-12
-5.75494E-12
-4.37610E-12
-5.56977E-12
-6.44615E-13
-5.28383E-14
-7.85825E-12
-7.31837E-12
-7.27389E-12
-8.73650E-12
-1.00064E-11
-3.73795E-12
-4.45952E-12
-4.14493E-12
-5.94546E-12
-8.47252E-12
-2.26117E-11
-2.32982E-11
-1.18178E-11
-1.71592E-11
 5.64783E-13
 1.19260E-12
-1.02865E-11
-9.72942E-12
-6.28756E-12
-7.38429E-12
-7.46656E-12
-6.24453E-12
-3.06685E-12
-6.75153E-13
-3.73227E-12
-4.29278E-12
-6.86014E-12
-6.28634E-12
-5.11744E-12
-2.12893E-12
 6.82792E-13
-3.20019E-12
 2.07112E-12
 4.48211E-12
 5.07559E-12
 7.07853E-12
 5.24126E-12
 7.39318E-12
 2.62695E-12
 6.75839E-12
 3.40793E-12
 1.51149E-11
 1.83523E-11
 1.28225E-11
 2.16591E-11
 4.57643E-12
 6.08035E-12
 2.14906E-12
 1.01953E-11
 8.16299E-12
 9.89194E-12
 1.42850E-11
 4.64553E-12
 6.44873E-12
 1.84442E-12
CELL_DATA         140
SCALARS elemDataMatch  float  1
LOOKUP_TABLE default
 0.00000E+00
 1.76559E-13
 1.76559E-13
 1.80823E-13
 1.84989E-13
 2.17208E-13
 4.23363E-15
 6.25950E-13
 5.72485E-13
 4.82863E-13
 2.16138E-14
 1.14539E-13
 5.76317E-14
 5.76317E-14
 1.76559E-13
 1.37428E-13
 2.01615E-13
 4.17205E-13
 3.55316E-13
 6.56523E-13
 1.59019E-12
 2.29809E-12
 9.38057E-13
 6.49419E-13
 2.25582E-13
 2.56520E-13
 2.61091E-13
 1.20222E-13
 1.94108E-14
 6.66504E-14
 1.65508E-13
 9.68016E-14
 5.98047E-13
 1.16223E-12
 1.89164E-12
 3.36411E-12
 3.33403E-12
 3.56449E-12
 6.46663E-13
 9.31426E-13
 4.41785E-13
 5.87276E-13
 2.51464E-14
 2.32226E-13
 2.33008E-13
 5.36327E-13
 8.33463E-13
 2.09986E-12
 4.18465E-12
 2.21238E-12
 1.80353E-12
 5.81608E-13
 2.20274E-12
 1.57081E-12
 7.89218E-13
 4.30104E-14
 1.46404E-13
 1.20864E-13
 4.69873E-13
 1.45136E-13
 8.81266E-13
 1.31011E-12
 1.16937E-12
 3.96336E-13
 3.05054E-13
 3.33201E-13
 2.91205E-13
 1.10536E-13
 1.20102E-13
 3.71298E-14
 7.42033E-15
 1.85298E-13
 2.98158E-13
 1.07287E-12
 5.05292E-13
 8.00211E-13
 5.55648E-13
 1.17533E-12
 8.21432E-13
 4.19911E-13
 1.28120E-13
 3.08415E-14
 4.19112E-14
 4.94874E-16
 1.45068E-13
 2.12549E-13
 5.78542E-13
 3.73950E-13
 1.20463E-12
 1.08905E-12
 1.54401E-12
 1.01341E-12
 3.28603E-13
 1.12779E-12
 7.58672E-13
 2.38525E-12
 9.00920E-13
 9.21783E-13
 2.62696E-13
 3.81955E-13
 3.84216E-13
 1.96826E-12
 1.80468E-12
 4.52333E-12
 2.70566E-12
 4.60809E-12
 3.85974E-12
 4.27635E-12
 3.40470E-12
 2.47444E-12
 1.64382E-12
 2.45922E-13
 4.71019E-13
 3.53269E-13
 1.51711E-12
 7.73016E-13
 3.29287E-12
 1.96780E-12
 4.93417E-12
 3.20409E-12
 3.30606E-12
 1.17786E-12
 1.14629E-12
 5.08847E-13
 2.12564E-13
 6.44090E-15
 1.16307E-13
 1.16307E-13
 8.72456E-14
 2.77600E-14
 2.53118E-13
 1.58935E-13
 6.26942E-13
 2.63402E-13
 5.96258E-13
 1.40490E-13
 1.16849E-13
 6.44090E-15
 6.44090E-15
 0.00000E+00
SCALARS elemRegul  float  1
LOOKUP_TABLE default
 9.59587E-15
 4.49919E-15
 4.07588E-15
 9.52029E-15
 3.85227E-15
 1.33856E-15
 1.03859E-15
 7.03487E-15
 4.50255E-15
 7.90179E-15
 2.41929E-15
 2.36450E-14
 1.72829E-14
 1.30785E-14
 4.19895E-15
 1.18621E-14
 1.02630E-14
 2.55703E-14
 1.99905E-14
 1.39868E-14
 8.18621E-15
 1.41482E-14
 1.58784E-14
 1.31498E-14
 2.00615E-14
 1.16006E-14
 1.53819E-14
 1.85765E-14
 1.70149E-14
 2.43121E-14
 2.91004E-14
 1.58143E-14
 1.92435E-14
 3.52987E-14
 3.46019E-14
 3.85968E-14
 3.85319E-14
 2.75577E-14
 2.76048E-14
 2.42333E-14
 2.46586E-14
 2.08915E-14
 1.61852E-14
 1.39773E-14
 1.51728E-14
 2.64667E-14
 2.33265E-14
 2.93692E-14
 2.74523E-14
 2.44355E-14
 2.48325E-14
 2.13194E-14
 2.06892E-14
 2.72484E-14
 2.88277E-14
 1.25483E-14
 2.84338E-15
 8.94182E-15
 1.65754E-14
 7.81043E-15
 1.20985E-14
 1.74688E-14
 1.68691E-14
 2.26899E-14
 2.57874E-14
 8.66586E-15
 2.09951E-15
 2.08819E-14
 1.75921E-14
 1.06370E-14
 8.57419E-15
 2.24792E-14
 1.59880E-14
 1.67455E-14
 8.36226E-15
 3.36737E-14
 2.37230E-14
 1.92435E-14
 1.88329E-14
 5.93302E-15
 1.51485E-14
 1.37650E-14
 1.11570E-14
 1.13916E-14
 3.10983E-14
 8.51685E-15
 1.77483E-14
 1.78193E-14
 2.87433E-14
 4.08452E-14
 4.19013E-14
 3.28595E-14
 3.31864E-14