# vtk DataFile Version 2.0
Output of NLACE
ASCII
DATASET UNSTRUCTURED_GRID
POINTS           88 FLOAT
 6.000000E-01  2.500000E-01  0.000000E+00
 6.500000E-01  2.500000E-01  0.000000E+00
 7.000000E-01  2.500000E-01  0.000000E+00
 7.500000E-01  2.500000E-01  0.000000E+00
 8.000000E-01  2.500000E-01  0.000000E+00
 8.500000E-01  2.500000E-01  0.000000E+00
 9.000000E-01  2.500000E-01  0.000000E+00
 9.500000E-01  2.500000E-01  0.000000E+00
 6.000000E-01  3.000000E-01  0.000000E+00
 6.500000E-01  3.000000E-01  0.000000E+00
 7.000000E-01  3.000000E-01  0.000000E+00
 7.500000E-01  3.000000E-01  0.000000E+00
 8.000000E-01  3.000000E-01  0.000000E+00
 8.500000E-01  3.000000E-01  0.000000E+00
 9.000000E-01  3.000000E-01  0.000000E+00
 9.500000E-01  3.000000E-01  0.000000E+00
 6.000000E-01  3.500000E-01  0.000000E+00
 6.500000E-01  3.500000E-01  0.000000E+00
 7.000000E-01  3.500000E-01  0.000000E+00
 7.500000E-01  3.500000E-01  0.000000E+00
 8.000000E-01  3.500000E-01  0.000000E+00
 8.500000E-01  3.500000E-01  0.000000E+00
 9.000000E-01  3.500000E-01  0.000000E+00
 9.500000E-01  3.500000E-01  0.000000E+00
 6.000000E-01  4.000000E-01  0.000000E+00
 6.500000E-01  4.000000E-01  0.000000E+00
 7.000000E-01  4.000000E-01  0.000000E+00
 7.500000E-01  4.000000E-01  0.000000E+00
 8.000000E-01  4.000000E-01  0.000000E+00
 8.500000E-01  4.000000E-01  0.000000E+00
 9.000000E-01  4.000000E-01  0.000000E+00
 9.500000E-01  4.000000E-01  0.000000E+00
 6.000000E-01  4.500000E-01  0.000000E+00
 6.500000E-01  4.500000E-01  0.000000E+00
 7.000000E-01  4.500000E-01  0.000000E+00
 7.500000E-01  4.500000E-01  0.000000E+00
 8.000000E-01  4.500000E-01  0.000000E+00
 8.500000E-01  4.500000E-01  0.000000E+00
 9.000000E-01  4.500000E-01  0.000000E+00
 9.500000E-01  4.500000E-01  0.000000E+00
 6.000000E-01  5.000000E-01  0.000000E+00
 6.500000E-01  5.000000E-01  0.000000E+00
 7.000000E-01  5.000000E-01  0.000000E+00
 7.500000E-01  5.000000E-01  0.000000E+00
 8.000000E-01  5.000000E-01  0.000000E+00
 8.500000E-01  5.000000E-01  0.000000E+00
 9.000000E-01  5.000000E-01  0.000000E+00
 9.500000E-01  5.000000E-01  0.000000E+00
 6.000000E-01  5.500000E-01  0.000000E+00
 6.500000E-01  5.500000E-01  0.000000E+00
 7.000000E-01  5.500000E-01  0.000000E+00
 7.500000E-01  5.500000E-01  0.000000E+00
 8.000000E-01  5.500000E-01  0.000000E+00
 8.500000E-01  5.500000E-01  0.000000E+00
 9.000000E-01  5.500000E-01  0.000000E+00
 9.500000E-01  5.500000E-01  0.000000E+00
 6.000000E-01  6.000000E-01  0.000000E+00
 6.500000E-01  6.000000E-01  0.000000E+00
 7.000000E-01  6.000000E-01  0.000000E+00
 7.500000E-01  6.000000E-01  0.000000E+00
 8.000000E-01  6.000000E-01  0.000000E+00
 8.500000E-01  6.000000E-01  0.000000E+00
 9.000000E-01  6.000000E-01  0.000000E+00
 9.500000E-01  6.000000E-01  0.000000E+00
 6.000000E-01  6.500000E-01  0.000000E+00
 6.500000E-01  6.500000E-01  0.000000E+00
 7.000000E-01  6.500000E-01  0.000000E+00
 7.500000E-01  6.500000E-01  0.000000E+00
 8.000000E-01  6.500000E-01  0.000000E+00
 8.500000E-01  6.500000E-01  0.000000E+00
 9.000000E-01  6.500000E-01  0.000000E+00
 9.500000E-01  6.500000E-01  0.000000E+00
 6.000000E-01  7.000000E-01  0.000000E+00
 6.500000E-01  7.000000E-01  0.000000E+00
 7.000000E-01  7.000000E-01  0.000000E+00
 7.500000E-01  7.000000E-01  0.000000E+00
 8.000000E-01  7.000000E-01  0.000000E+00
 8.500000E-01  7.000000E-01  0.000000E+00
 9.000000E-01  7.000000E-01  0.000000E+00
 9.500000E-01  7.000000E-01  0.000000E+00
 6.000000E-01  7.500000E-01  0.000000E+00
 6.500000E-01  7.500000E-01  0.000000E+00
 7.000000E-01  7.500000E-01  0.000000E+00
 7.500000E-01  7.500000E-01  0.000000E+00
 8.000000E-01  7.500000E-01  0.000000E+00
 8.500000E-01  7.500000E-01  0.000000E+00
 9.000000E-01  7.500000E-01  0.000000E+00
 9.500000E-01  7.500000E-01  0.000000E+00
CELLS          140         560
           3           0           1           8
           3           1           9           8
           3           1           2           9
           3           2          10           9
           3           2           3          10
           3           3          11          10
           3           3           4          11
           3           4          12          11
           3           4           5          12
           3           5          13          12
           3           5           6          13
           3           6          14          13
           3           6           7          14
           3           7          15          14
           3           8           9          16
           3           9          17          16
           3           9          10          17
           3          10          18          17
           3          10          11          18
           3          11          19          18
           3          11          12          19
           3          12          20          19
           3          12          13          20
           3          13          21          20
           3          13          14          21
           3          14          22          21
           3          14          15          22
           3          15          23          22
           3          16          17          24
           3          17          25          24
           3          17          18          25
           3          18          26          25
           3          18          19          26
           3          19          27          26
           3          19          20          27
           3          20          28          27
           3          20          21          28
           3          21          29          28
           3          21          22          29
           3          22          30          29
           3          22          23          30
           3          23          31          30
           3          24          25          32
           3          25          33          32
           3          25          26          33
           3          26          34          33
           3          26          27          34
           3          27          35          34
           3          27          28          35
           3          28          36          35
           3          28          29          36
           3          29          37          36
           3          29          30          37
           3          30          38          37
           3          30          31          38
           3          31          39          38
           3          32          33          40
           3          33          41          40
           3          33          34          41
           3          34          42          41
           3          34          35          42
           3          35          43          42
           3          35          36          43
           3          36          44          43
           3          36          37          44
           3          37          45          44
           3          37          38          45
           3          38          46          45
           3          38          39          46
           3          39          47          46
           3          40          41          48
           3          41          49          48
           3          41          42          49
           3          42          50          49
           3          42          43          50
           3          43          51          50
           3          43          44          51
           3          44          52          51
           3          44          45          52
           3          45          53          52
           3          45          46          53
           3          46          54          53
           3          46          47          54
           3          47          55          54
           3          48          49          56
           3          49          57          56
           3          49          50          57
           3          50          58          57
           3          50          51          58
           3          51          59          58
           3          51          52          59
           3          52          60          59
           3          52          53          60
           3          53          61          60
           3          53          54          61
           3          54          62          61
           3          54          55          62
           3          55          63          62
           3          56          57          64
           3          57          65          64
           3          57          58          65
           3          58          66          65
           3          58          59          66
           3          59          67          66
           3          59          60          67
           3          60          68          67
           3          60          61          68
           3          61          69          68
           3          61          62          69
           3          62          70          69
           3          62          63          70
           3          63          71          70
           3          64          65          72
           3          65          73          72
           3          65          66          73
           3          66          74          73
           3          66          67          74
           3          67          75          74
           3          67          68          75
           3          68          76          75
           3          68          69          76
           3          69          77          76
           3          69          70          77
           3          70          78          77
           3          70          71          78
           3          71          79          78
           3          72          73          80
           3          73          81          80
           3          73          74          81
           3          74          82          81
           3          74          75          82
           3          75          83          82
           3          75          76          83
           3          76          84          83
           3          76          77          84
           3          77          85          84
           3          77          78          85
           3          78          86          85
           3          78          79          86
           3          79          87          86
CELL_TYPES          140
5
5
5
5
5
5
5
5
5
5
5
5
5
5
5
5
5
5
5
5
5
5
5
5
5
5
5
5
5
5
5
5
5
5
5
5
5
5
5
5
5
5
5
5
5
5
5
5
5
5
5
5
5
5
5
5
5
5
5
5
5
5
5
5
5
5
5
5
5
5
5
5
5
5
5
5
5
5
5
5
5
5
5
5
5
5
5
5
5
5
5
5
5
5
5
5
5
5
5
5
5
5
5
5
5
5
5
5
5
5
5
5
5
5
5
5
5
5
5
5
5
5
5
5
5
5
5
5
5
5
5
5
5
5
5
5
5
5
5
5
POINT_DATA           88
 SCALARS measuredDisp11 float  1                   
LOOKUP_TABLE default
 1.60000E-04
 2.36000E-04
 3.78000E-04
 5.10000E-04
 5.99000E-04
 7.16000E-04
 8.28000E-04
 9.85000E-04
 1.80000E-04
 2.39000E-04
 4.14000E-04
 4.16000E-04
 5.88000E-04
 7.34000E-04
 8.06000E-04
 9.81000E-04
 1.76000E-04
 3.33000E-04
 3.51000E-04
 3.74000E-04
 5.56000E-04
 6.67000E-04
 7.67000E-04
 8.85000E-04
 2.18000E-04
 3.55000E-04
 4.39000E-04
 5.02000E-04
 5.04000E-04
 5.75000E-04
 6.77000E-04
 7.85000E-04
 2.65000E-04
 4.09000E-04
 5.20000E-04
 5.11000E-04
 5.49000E-04
 5.82000E-04
 5.87000E-04
 8.10000E-04
 2.37000E-04
 3.57000E-04
 5.39000E-04
 4.27000E-04
 5.30000E-04
 6.13000E-04
 6.18000E-04
 6.40000E-04
 2.28000E-04
 3.42000E-04
 5.19000E-04
 4.62000E-04
 5.10000E-04
 6.02000E-04
 5.97000E-04
 8.01000E-04
 1.86000E-04
 3.10000E-04
 4.09000E-04
 5.36000E-04
 5.25000E-04
 5.93000E-04
 6.97000E-04
 7.79000E-04
 1.95000E-04
 2.72000E-04
 3.78000E-04
 4.81000E-04
 5.57000E-04
 6.59000E-04
 8.34000E-04
 8.67000E-04
 1.60000E-04
 2.57000E-04
 4.53000E-04
 4.60000E-04
 5.96000E-04
 7.29000E-04
 8.04000E-04
 9.40000E-04
 1.89000E-04
 2.52000E-04
 3.96000E-04
 4.41000E-04
 5.92000E-04
 7.39000E-04
 9.06000E-04
 9.78000E-04
 SCALARS measuredDisp12 float  1                   
LOOKUP_TABLE default
 1.52300E-03
 1.49400E-03
 1.47800E-03
 1.37500E-03
 1.37100E-03
 1.43200E-03
 1.39700E-03
 1.51600E-03
 1.38600E-03
 1.43000E-03
 1.32100E-03
 1.30900E-03
 1.23200E-03
 1.34200E-03
 1.36900E-03
 1.42900E-03
 1.33200E-03
 1.28300E-03
 1.24700E-03
 1.17400E-03
 1.18700E-03
 1.18400E-03
 1.29500E-03
 1.29500E-03
 1.24200E-03
 1.18800E-03
 1.17600E-03
 1.10000E-03
 1.03800E-03
 1.10900E-03
 1.10200E-03
 1.21700E-03
 1.17100E-03
 1.07600E-03
 1.04500E-03
 1.00900E-03
 1.10900E-03
 1.02900E-03
 1.06300E-03
 1.06500E-03
 1.01900E-03
 1.01900E-03
 1.02100E-03
 9.31000E-04
 1.04200E-03
 1.03900E-03
 9.84000E-04
 9.95000E-04
 8.93000E-04
 9.46000E-04
 9.82000E-04
 9.78000E-04
 9.54000E-04
 9.32000E-04
 9.23000E-04
 9.56000E-04
 7.84000E-04
 7.58000E-04
 8.28000E-04
 9.00000E-04
 8.74000E-04
 9.25000E-04
 9.24000E-04
 8.07000E-04
 6.60000E-04
 7.70000E-04
 8.23000E-04
 8.59000E-04
 8.85000E-04
 8.07000E-04
 7.87000E-04
 7.12000E-04
 6.24000E-04
 5.67000E-04
 6.54000E-04
 7.09000E-04
 7.34000E-04
 7.27000E-04
 6.30000E-04
 5.98000E-04
 5.12000E-04
 4.59000E-04
 5.47000E-04
 5.89000E-04
 5.95000E-04
 6.48000E-04
 5.20000E-04
 5.02000E-04
 SCALARS measuredDisp13 float  1                   
LOOKUP_TABLE default
 4.29600E-03
 4.18100E-03
 3.88600E-03
 3.35800E-03
 2.89100E-03
 2.65600E-03
 2.88000E-03
 3.45500E-03
 3.90000E-03
 4.22100E-03
 4.36400E-03
 4.57000E-03
 4.40600E-03
 4.19500E-03
 3.50900E-03
 2.40800E-03
 1.94000E-03
 2.46100E-03
 3.62000E-03
 4.16300E-03
 4.47600E-03
 4.46600E-03
 4.78600E-03
 4.80500E-03
 4.93700E-03
 4.25500E-03
 2.31600E-03
 1.88700E-03
 2.38500E-03
 4.28500E-03
 4.91200E-03
 4.83700E-03
 4.72200E-03
 4.96400E-03
 5.38100E-03
 6.06900E-03
 6.07100E-03
 4.27400E-03
 4.92200E-03
 4.25300E-03
 6.04200E-03
 5.92800E-03
 5.38200E-03
 4.95300E-03
 5.07000E-03
 5.52600E-03
 6.50000E-03
 6.48300E-03
 4.17200E-03
 4.60700E-03
 4.15100E-03
 6.49300E-03
 6.53600E-03
 5.54200E-03
 4.97000E-03
 4.91300E-03
 5.20500E-03
 5.77700E-03
 5.89600E-03
 4.72800E-03
 5.21500E-03
 4.68700E-03
 5.95300E-03
 5.91800E-03
 5.28800E-03
 4.83100E-03
 4.44600E-03
 4.59100E-03
 4.75900E-03
 4.39000E-03
 3.38200E-03
 3.30100E-03
 3.37800E-03
 4.42100E-03
 4.84600E-03
 4.59600E-03
 4.50300E-03
 4.02500E-03
 4.02900E-03
 4.05400E-03
 3.98400E-03
 3.87100E-03
 3.62800E-03
 3.77000E-03
 3.99600E-03
 4.05500E-03
 4.02200E-03
 4.00000E-03
 SCALARS predictedDisp11 float  1                  
LOOKUP_TABLE default
 2.14454E-04
 3.00196E-04
 3.78000E-04
 4.81869E-04
 6.05256E-04
 7.00724E-04
 8.12424E-04
 9.11730E-04
 2.27899E-04
 3.17532E-04
 4.11649E-04
 5.03325E-04
 5.95075E-04
 6.86030E-04
 7.71752E-04
 8.48524E-04
 2.29249E-04
 3.27261E-04
 4.22803E-04
 5.10723E-04
 5.93937E-04
 6.76228E-04
 7.56190E-04
 8.37524E-04
 2.40446E-04
 3.37191E-04
 4.30951E-04
 5.16766E-04
 5.97140E-04
 6.76193E-04
 7.55668E-04
 8.34931E-04
 2.54800E-04
 3.51061E-04
 4.40818E-04
 5.24121E-04
 6.03347E-04
 6.82137E-04
 7.63408E-04
 8.50004E-04
 2.68416E-04
 3.59005E-04
 4.46753E-04
 5.29491E-04
 6.09298E-04
 6.90220E-04
 7.76870E-04
 8.73378E-04
 2.58839E-04
 3.54694E-04
 4.45265E-04
 5.29730E-04
 6.10198E-04
 6.90440E-04
 7.73757E-04
 8.58948E-04
 2.47942E-04
 3.44919E-04
 4.38683E-04
 5.25932E-04
 6.07445E-04
 6.86558E-04
 7.66502E-04
 8.51600E-04
 2.25999E-04
 3.27595E-04
 4.28245E-04
 5.20075E-04
 6.05139E-04
 6.87755E-04
 7.70868E-04
 8.58976E-04
 2.10041E-04
 3.16399E-04
 4.16567E-04
 5.11316E-04
 6.02602E-04
 6.94947E-04
 7.84583E-04
 8.75454E-04
 2.30554E-04
 3.10800E-04
 3.84990E-04
 4.90973E-04
 5.93263E-04
 7.11217E-04
 8.27849E-04
 9.05975E-04
 SCALARS predictedDisp12 float  1                  
LOOKUP_TABLE default
 1.52300E-03
 1.49400E-03
 1.47800E-03
 1.37500E-03
 1.37100E-03
 1.43200E-03
 1.39700E-03
 1.51600E-03
 1.38600E-03
 1.38944E-03
 1.36425E-03
 1.31655E-03
 1.30737E-03
 1.32886E-03
 1.34623E-03
 1.42900E-03
 1.33200E-03
 1.29805E-03
 1.26854E-03
 1.24022E-03
 1.23198E-03
 1.24268E-03
 1.26229E-03
 1.29500E-03
 1.24200E-03
 1.20500E-03
 1.17800E-03
 1.15980E-03
 1.15456E-03
 1.16166E-03
 1.17840E-03
 1.21700E-03
 1.17100E-03
 1.11397E-03
 1.09045E-03
 1.07917E-03
 1.07650E-03
 1.08000E-03
 1.08335E-03
 1.06500E-03
 1.01900E-03
 1.00939E-03
 1.00169E-03
 9.98164E-04
 9.98089E-04
 1.00008E-03
 1.00143E-03
 9.95000E-04
 8.93000E-04
 9.05935E-04
 9.11912E-04
 9.16067E-04
 9.18560E-04
 9.19195E-04
 9.22196E-04
 9.56000E-04
 7.84000E-04
 8.04524E-04
 8.20951E-04
 8.33027E-04
 8.38903E-04
 8.37082E-04
 8.25886E-04
 8.07000E-04
 6.60000E-04
 6.98905E-04
 7.27031E-04
 7.49002E-04
 7.59892E-04
 7.58889E-04
 7.34951E-04
 7.12000E-04
 6.24000E-04
 5.97949E-04
 6.34439E-04
 6.66298E-04
 6.80334E-04
 6.87523E-04
 6.36118E-04
 5.98000E-04
 5.12000E-04
 4.59000E-04
 5.47000E-04
 5.89000E-04
 5.95000E-04
 6.48000E-04
 5.20000E-04
 5.02000E-04
 SCALARS predictedDisp13 float  1                  
LOOKUP_TABLE default
 4.11281E-03
 3.97398E-03
 3.57693E-03
 2.95511E-03
 2.73730E-03
 2.91877E-03
 2.93956E-03
 3.05174E-03
 3.89195E-03
 3.77640E-03
 3.49120E-03
 3.06083E-03
 2.97278E-03
 3.09470E-03
 3.21431E-03
 3.42978E-03
 3.68355E-03
 3.68696E-03
 3.55406E-03
 3.34376E-03
 3.29872E-03
 3.41819E-03
 3.60775E-03
 3.74415E-03
 3.81592E-03
 3.81071E-03
 3.72695E-03
 3.60103E-03
 3.56417E-03
 3.64726E-03
 3.80082E-03
 3.94996E-03
 4.21679E-03
 4.15979E-03
 3.97103E-03
 3.80894E-03
 3.73539E-03
 3.76370E-03
 3.86462E-03
 3.88983E-03
 4.55308E-03
 4.37633E-03
 4.12216E-03
 3.91958E-03
 3.80042E-03
 3.74879E-03
 3.70554E-03
 3.63663E-03
 4.50126E-03
 4.35621E-03
 4.12519E-03
 3.92483E-03
 3.80553E-03
 3.77037E-03
 3.78953E-03
 3.87352E-03
 4.34059E-03
 4.23941E-03
 4.03005E-03
 3.83328E-03
 3.72987E-03
 3.76319E-03
 3.95039E-03
 4.07164E-03
 4.06530E-03
 4.03301E-03
 3.87988E-03
 3.65380E-03
 3.52686E-03
 3.55906E-03
 3.81295E-03
 3.97215E-03
 4.09150E-03
 4.15724E-03
 3.84880E-03
 3.46040E-03
 3.26005E-03
 3.25133E-03
 3.66658E-03
 3.90126E-03
 4.43838E-03
 4.33328E-03
 3.80406E-03
 3.34218E-03
 3.05644E-03
 3.07343E-03
 3.63498E-03
 3.83153E-03
 SCALARS dual11 float  1                           
LOOKUP_TABLE default
-2.01759E-08
-9.05150E-09
 0.00000E+00
 1.71961E-08
 4.01441E-08
 6.34434E-08
 7.93623E-08
 9.53325E-08
-1.01206E-08
-9.11136E-10
 8.92157E-09
 2.24766E-08
 4.09204E-08
 5.57468E-08
 6.66417E-08
 7.99798E-08
 2.24545E-08
 2.67749E-08
 2.95431E-08
 3.30067E-08
 3.55464E-08
 3.62432E-08
 3.61160E-08
 4.06100E-08
 6.86393E-08
 6.26344E-08
 5.56469E-08
 4.50958E-08
 2.95384E-08
 1.07387E-08
-2.17547E-09
-1.40567E-08
 1.09386E-07
 9.36101E-08
 7.72644E-08
 5.35099E-08
 2.14186E-08
-8.83053E-09
-3.40633E-08
-5.76338E-08
 1.25835E-07
 1.04140E-07
 8.27361E-08
 5.33117E-08
 1.74044E-08
-1.49363E-08
-4.19106E-08
-6.98803E-08
 1.04394E-07
 8.66643E-08
 6.98718E-08
 4.58107E-08
 2.03750E-08
-2.09294E-09
-2.23192E-08
-4.36949E-08
 5.16921E-08
 4.70286E-08
 4.09298E-08
 3.34192E-08
 2.78232E-08
 2.31165E-08
 2.09897E-08
 1.90580E-08
-1.34429E-08
-5.43551E-09
 4.31298E-09
 1.89083E-08
 3.70580E-08
 5.74132E-08
 7.64518E-08
 9.34214E-08
-7.32277E-08
-4.93005E-08
-2.49179E-08
 8.78427E-09
 4.88189E-08
 8.77015E-08
 1.20130E-07
 1.48121E-07
-9.90085E-08
-6.80570E-08
-3.54932E-08
 7.62992E-09
 5.63828E-08
 1.00999E-07
 1.34735E-07
 1.63711E-07
 SCALARS dual12 float  1                           
LOOKUP_TABLE default
 0.00000E+00
 0.00000E+00
 0.00000E+00
 0.00000E+00
 0.00000E+00
 0.00000E+00
 0.00000E+00
 0.00000E+00
 0.00000E+00
-5.75634E-09
-3.96838E-08
-5.92585E-08
-7.14613E-08
-3.85453E-08
-8.00097E-09
 0.00000E+00
 0.00000E+00
-2.45718E-08
-6.16230E-08
-1.01493E-07
-1.09350E-07
-7.71950E-08
-2.61962E-08
 0.00000E+00
 0.00000E+00
-2.85988E-08
-6.11040E-08
-1.03983E-07
-1.11535E-07
-8.01489E-08
-4.80290E-08
 0.00000E+00
 0.00000E+00
-2.06082E-08
-3.96172E-08
-6.02473E-08
-3.42839E-08
-3.05837E-08
-2.09174E-08
 0.00000E+00
 0.00000E+00
 1.43828E-08
 2.51555E-08
 2.38968E-08
 5.55480E-08
 4.72053E-08
 1.84978E-08
 0.00000E+00
 0.00000E+00
 4.56780E-08
 8.96792E-08
 1.19307E-07
 1.29515E-07
 1.05900E-07
 6.12260E-08
 0.00000E+00
 0.00000E+00
 4.65972E-08
 1.17430E-07
 1.71435E-07
 1.79837E-07
 1.60819E-07
 1.02742E-07
 0.00000E+00
 0.00000E+00
 6.27591E-08
 1.32912E-07
 1.82664E-07
 1.92235E-07
 1.52936E-07
 8.81491E-08
 0.00000E+00
 0.00000E+00
 2.93810E-08
 7.54260E-08
 1.09437E-07
 1.14762E-07
 8.84478E-08
 4.29096E-08
 0.00000E+00
 0.00000E+00
 0.00000E+00
 0.00000E+00
 0.00000E+00
 0.00000E+00
 0.00000E+00
 0.00000E+00
 0.00000E+00
 SCALARS dual13 float  1                           
LOOKUP_TABLE default
-4.96115E-07
-6.51324E-07
-1.05600E-06
-1.41156E-06
-1.51320E-06
-1.25234E-06
-8.31971E-07
-6.10468E-07
-4.19566E-07
-5.89402E-07
-9.08892E-07
-1.17211E-06
-1.21259E-06
-1.00144E-06
-6.91500E-07
-5.39112E-07
-1.70801E-07
-2.48015E-07
-3.47444E-07
-4.33713E-07
-4.37539E-07
-3.86047E-07
-3.00585E-07
-2.56450E-07
 2.37623E-07
 2.88579E-07
 4.46141E-07
 5.98099E-07
 6.88278E-07
 5.82398E-07
 3.89676E-07
 2.86061E-07
 6.25836E-07
 8.25642E-07
 1.24057E-06
 1.59356E-06
 1.69244E-06
 1.44579E-06
 1.02678E-06
 7.61399E-07
 8.21847E-07
 1.09735E-06
 1.60881E-06
 1.99538E-06
 2.02725E-06
 1.72415E-06
 1.24955E-06
 9.58892E-07
 6.38985E-07
 8.63716E-07
 1.28701E-06
 1.60143E-06
 1.60970E-06
 1.39968E-06
 1.04560E-06
 8.19564E-07
 1.89486E-07
 3.13652E-07
 4.99283E-07
 6.19285E-07
 6.17711E-07
 5.06575E-07
 3.28842E-07
 2.54624E-07
-3.24491E-07
-4.07868E-07
-6.17890E-07
-7.82926E-07
-8.44407E-07
-7.87611E-07
-6.13726E-07
-4.47649E-07
-8.66677E-07
-1.12273E-06
-1.63558E-06
-2.02011E-06
-2.07443E-06
-1.77165E-06
-1.26226E-06
-9.35670E-07
-1.05484E-06
-1.42156E-06
-2.06309E-06
-2.50381E-06
-2.50104E-06
-2.05309E-06
-1.40275E-06
-1.06731E-06
 SCALARS NLP float  1                              
LOOKUP_TABLE default
 0.00000E+00
 0.00000E+00
 0.00000E+00
 0.00000E+00
 0.00000E+00
 0.00000E+00
 0.00000E+00
 0.00000E+00
 0.00000E+00
 0.00000E+00
 0.00000E+00
 0.00000E+00
 0.00000E+00
 0.00000E+00
 0.00000E+00
 0.00000E+00
 0.00000E+00
 0.00000E+00
 0.00000E+00
 0.00000E+00
 0.00000E+00
 0.00000E+00
 0.00000E+00
 0.00000E+00
 0.00000E+00
 0.00000E+00
 0.00000E+00
 0.00000E+00
 0.00000E+00
 0.00000E+00
 0.00000E+00
 0.00000E+00
 0.00000E+00
 0.00000E+00
 0.00000E+00
 0.00000E+00
 0.00000E+00
 0.00000E+00
 0.00000E+00
 0.00000E+00
 0.00000E+00
 0.00000E+00
 0.00000E+00
 0.00000E+00
 0.00000E+00
 0.00000E+00
 0.00000E+00
 0.00000E+00
 0.00000E+00
 0.00000E+00
 0.00000E+00
 0.00000E+00
 0.00000E+00
 0.00000E+00
 0.00000E+00
 0.00000E+00
 0.00000E+00
 0.00000E+00
 0.00000E+00
 0.00000E+00
 0.00000E+00
 0.00000E+00
 0.00000E+00
 0.00000E+00
 0.00000E+00
 0.00000E+00
 0.00000E+00
 0.00000E+00
 0.00000E+00
 0.00000E+00
 0.00000E+00
 0.00000E+00
 0.00000E+00
 0.00000E+00
 0.00000E+00
 0.00000E+00
 0.00000E+00
 0.00000E+00
 0.00000E+00
 0.00000E+00
 0.00000E+00
 0.00000E+00
 0.00000E+00
 0.00000E+00
 0.00000E+00
 0.00000E+00
 0.00000E+00
 0.00000E+00
 SCALARS SM float  1                               
LOOKUP_TABLE default
 1.04978E+00
 1.04905E+00
 1.04818E+00
 1.04751E+00
 1.04734E+00
 1.04788E+00
 1.04891E+00
 1.04961E+00
 1.04925E+00
 1.04913E+00
 1.04865E+00
 1.04822E+00
 1.04825E+00
 1.04855E+00
 1.04888E+00
 1.04943E+00
 1.04955E+00
 1.04960E+00
 1.04913E+00
 1.04923E+00
 1.04948E+00
 1.04965E+00
 1.05006E+00
 1.04983E+00
 1.05033E+00
 1.05066E+00
 1.05136E+00
 1.05202E+00
 1.05194E+00
 1.05191E+00
 1.05150E+00
 1.05089E+00
 1.05124E+00
 1.05196E+00
 1.05324E+00
 1.05403E+00
 1.05417E+00
 1.05375E+00
 1.05242E+00
 1.05194E+00
 1.05185E+00
 1.05231E+00
 1.05395E+00
 1.05479E+00
 1.05505E+00
 1.05447E+00
 1.05300E+00
 1.05206E+00
 1.05140E+00
 1.05228E+00
 1.05344E+00
 1.05384E+00
 1.05425E+00
 1.05338E+00
 1.05171E+00
 1.05158E+00
 1.05067E+00
 1.05089E+00
 1.05093E+00
 1.05133E+00
 1.05098E+00
 1.05052E+00
 1.05035E+00
 1.05004E+00
 1.04953E+00
 1.04864E+00
 1.04837E+00
 1.04770E+00
 1.04732E+00
 1.04779E+00
 1.04844E+00
 1.04832E+00
 1.04801E+00
 1.04833E+00
 1.04664E+00
 1.04605E+00
 1.04628E+00
 1.04638E+00
 1.04766E+00
 1.04776E+00
 1.04863E+00
 1.04700E+00
 1.04574E+00
 1.04476E+00
 1.04470E+00
 1.04584E+00
 1.04728E+00
 1.04919E+00
 SCALARS gradient1 float  1                        
LOOKUP_TABLE default
 0.00000E+00
 0.00000E+00
 0.00000E+00
 0.00000E+00
 0.00000E+00
 0.00000E+00
 0.00000E+00
 0.00000E+00
 0.00000E+00
 0.00000E+00
 0.00000E+00
 0.00000E+00
 0.00000E+00
 0.00000E+00
 0.00000E+00
 0.00000E+00
 0.00000E+00
 0.00000E+00
 0.00000E+00
 0.00000E+00
 0.00000E+00
 0.00000E+00
 0.00000E+00
 0.00000E+00
 0.00000E+00
 0.00000E+00
 0.00000E+00
 0.00000E+00
 0.00000E+00
 0.00000E+00
 0.00000E+00
 0.00000E+00
 0.00000E+00
 0.00000E+00
 0.00000E+00
 0.00000E+00
 0.00000E+00
 0.00000E+00
 0.00000E+00
 0.00000E+00
 0.00000E+00
 0.00000E+00
 0.00000E+00
 0.00000E+00
 0.00000E+00
 0.00000E+00
 0.00000E+00
 0.00000E+00
 0.00000E+00
 0.00000E+00
 0.00000E+00
 0.00000E+00
 0.00000E+00
 0.00000E+00
 0.00000E+00
 0.00000E+00
 0.00000E+00
 0.00000E+00
 0.00000E+00
 0.00000E+00
 0.00000E+00
 0.00000E+00
 0.00000E+00
 0.00000E+00
 0.00000E+00
 0.00000E+00
 0.00000E+00
 0.00000E+00
 0.00000E+00
 0.00000E+00
 0.00000E+00
 0.00000E+00
 0.00000E+00
 0.00000E+00
 0.00000E+00
 0.00000E+00
 0.00000E+00
 0.00000E+00
 0.00000E+00
 0.00000E+00
 0.00000E+00
 0.00000E+00
 0.00000E+00
 0.00000E+00
 0.00000E+00
 0.00000E+00
 0.00000E+00
 0.00000E+00
 SCALARS gradient2 float  1                        
LOOKUP_TABLE default
 2.03399E-12
 9.90951E-13
 2.26897E-12
 3.11507E-12
 3.85225E-12
 3.97435E-12
 2.71905E-12
 2.28198E-12
 3.68622E-13
 3.80293E-12
 7.56092E-12
 8.54954E-12
 9.53746E-12
 6.67107E-12
 7.62202E-13
 1.19337E-12
 5.76098E-13
 3.63140E-12
 9.21856E-13
 3.47486E-12
 3.01975E-12
 1.98745E-12
 3.18426E-12
-6.09295E-13
-1.09475E-12
-1.94754E-12
-2.59810E-12
-4.36004E-12
-8.10443E-12
-5.98855E-12
-2.52560E-12
-3.55619E-12
-2.91717E-12
-5.92480E-12
-9.30685E-12
-1.37578E-11
-1.58494E-11
-1.21248E-11
-1.03482E-11
-3.78891E-12
-3.32132E-12
-9.47503E-12
-1.19651E-11
-1.34363E-11
-1.20319E-11
-1.11953E-11
-7.83356E-12
-4.24904E-12
-5.06290E-12
-4.62396E-12
-8.77620E-12
-1.46996E-11
-1.10899E-11
-1.07947E-11
-1.00770E-11
-2.66013E-12
-1.01162E-12
-2.40914E-12
-6.20899E-12
-5.88885E-12
-6.00551E-12
-4.66432E-12
-1.35955E-12
 6.93231E-13
 6.57282E-13
 1.55889E-12
 5.00288E-12
 6.99799E-12
 7.11308E-12
 8.64668E-12
 8.92399E-12
 2.94734E-12
-1.99788E-13
 1.49396E-11
 1.50666E-11
 1.88183E-11
 2.25363E-11
 1.42433E-11
 1.39784E-11
 2.64705E-12
 5.28564E-12
 5.83934E-12
 8.39950E-12
 1.06981E-11
 9.32208E-12
 7.48672E-12
 4.71315E-12
 2.55535E-12
CELL_DATA         140
SCALARS elemDataMatch  float  1
LOOKUP_TABLE default
 0.00000E+00
 1.71400E-13
 1.71400E-13
 1.83502E-13
 1.94853E-13
 2.34818E-13
 5.94111E-15
 6.57034E-13
 5.91798E-13
 5.06599E-13
 1.79937E-14
 1.03172E-13
 5.40053E-14
 5.40053E-14
 1.71400E-13
 1.31400E-13
 2.11313E-13
 4.65366E-13
 3.97099E-13
 7.28554E-13
 1.68574E-12
 2.44262E-12
 1.00896E-12
 7.20543E-13
 2.42375E-13
 2.62624E-13
 2.43018E-13
 1.11436E-13
 2.35985E-14
 8.03590E-14
 2.00576E-13
 1.24990E-13
 6.72253E-13
 1.26830E-12
 2.04289E-12
 3.55099E-12
 3.51850E-12
 3.73669E-12
 7.01557E-13
 9.87660E-13
 4.59158E-13
 6.08021E-13
 3.01060E-14
 2.47483E-13
 2.59335E-13
 5.62852E-13
 8.93101E-13
 2.15300E-12
 4.31586E-12
 2.25807E-12
 1.88066E-12
 5.98652E-13
 2.27255E-12
 1.59802E-12
 8.13064E-13
 4.31213E-14
 1.50144E-13
 1.21766E-13
 4.71222E-13
 1.46061E-13
 8.66580E-13
 1.23633E-12
 1.11883E-12
 3.94844E-13
 3.24547E-13
 3.67592E-13
 2.90710E-13
 1.16356E-13
 1.11691E-13
 3.16353E-14
 9.61286E-15
 2.16914E-13
 3.55675E-13
 1.23185E-12
 5.35977E-13
 9.09665E-13
 6.13075E-13
 1.40526E-12
 9.73336E-13
 5.48606E-13
 1.64546E-13
 2.51501E-14
 3.02430E-14
 6.73565E-17
 1.67209E-13
 1.98512E-13
 6.63063E-13
 4.19988E-13
 1.46554E-12
 1.39867E-12
 1.90555E-12
 1.34803E-12
 4.99875E-13
 1.43605E-12
 9.48005E-13
 2.72209E-12
 1.01104E-12
 1.00275E-12
 2.25468E-13
 4.07434E-13
 4.30652E-13
 2.32447E-12
 2.22095E-12
 5.22352E-12
 3.27031E-12
 5.31214E-12
 4.48844E-12
 4.89001E-12
 3.87986E-12
 2.81056E-12
 1.81690E-12
 2.82199E-13
 5.26511E-13
 3.97086E-13
 1.75780E-12
 9.22116E-13
 3.77894E-12
 2.29061E-12
 5.56000E-12
 3.61493E-12
 3.76683E-12
 1.39092E-12
 1.35836E-12
 6.04141E-13
 2.52929E-13
 3.89835E-15
 9.97743E-14
 9.97743E-14
 7.65707E-14
 3.98591E-14
 3.16812E-13
 1.89942E-13
 7.28655E-13
 3.00002E-13
 6.83019E-13
 1.62334E-13
 1.41077E-13
 3.89835E-15
 3.89835E-15
 0.00000E+00
SCALARS elemRegul  float  1
LOOKUP_TABLE default
 1.15880E-15
 3.60287E-16
 1.13357E-15
 8.95046E-16
 1.07310E-15
 1.08603E-15
 9.67758E-16
 1.17739E-15
 1.35915E-15
 9.63594E-16
 1.55978E-15
 5.25137E-16
 9.35089E-16
 7.85257E-16
 5.08140E-16
 6.60775E-16
 8.93074E-16
 8.93033E-16
 8.65174E-16
 1.31023E-15
 1.30442E-15
 1.59910E-15
 1.61435E-15
 1.43311E-15
 1.47759E-15
 1.59663E-15
 1.65777E-15
 6.57913E-16
 1.02323E-15
 1.42708E-15
 1.48374E-15
 2.94252E-15
 2.81060E-15
 3.59244E-15
 3.51067E-15
 3.09175E-15
 3.09763E-15
 2.83723E-15
 2.88377E-15
 1.88728E-15
 1.84055E-15
 1.56389E-15
 1.25720E-15
 1.87449E-15
 1.86981E-15
 2.86275E-15
 2.50632E-15
 2.71220E-15
 2.53056E-15
 2.82292E-15
 2.81712E-15
 2.38784E-15
 2.38473E-15
 2.05052E-15
 1.41714E-15
 1.47454E-15
 1.20977E-15
 7.93760E-16
 1.69771E-15
 2.25389E-15
 1.35856E-15
 1.44649E-15
 1.01653E-15
 1.18038E-15
 1.25134E-15
 1.19247E-15
 1.91397E-15
 1.99631E-15
 9.93044E-16
 1.23113E-15
 8.61400E-16
 1.14003E-15
 2.07294E-15
 1.61555E-15
 1.26335E-15
 1.32301E-15
 1.26889E-15
 1.16680E-15
 1.27517E-15
 1.77401E-15
 2.30831E-15
 2.64855E-15
 2.02218E-15
 6.89755E-16
 1.45890E-15
 1.78148E-15
 2.28150E-15
 3.15812E-15
 3.19660E-15
 3.19567E-15
 3.19755E-15
 4.12128E-15
 4.24009E-15