# vtk DataFile Version 2.0
Output of NLACE
ASCII
DATASET UNSTRUCTURED_GRID
POINTS           88 FLOAT
 6.000000E-01  2.500000E-01  0.000000E+00
 6.500000E-01  2.500000E-01  0.000000E+00
 7.000000E-01  2.500000E-01  0.000000E+00
 7.500000E-01  2.500000E-01  0.000000E+00
 8.000000E-01  2.500000E-01  0.000000E+00
 8.500000E-01  2.500000E-01  0.000000E+00
 9.000000E-01  2.500000E-01  0.000000E+00
 9.500000E-01  2.500000E-01  0.000000E+00
 6.000000E-01  3.000000E-01  0.000000E+00
 6.500000E-01  3.000000E-01  0.000000E+00
 7.000000E-01  3.000000E-01  0.000000E+00
 7.500000E-01  3.000000E-01  0.000000E+00
 8.000000E-01  3.000000E-01  0.000000E+00
 8.500000E-01  3.000000E-01  0.000000E+00
 9.000000E-01  3.000000E-01  0.000000E+00
 9.500000E-01  3.000000E-01  0.000000E+00
 6.000000E-01  3.500000E-01  0.000000E+00
 6.500000E-01  3.500000E-01  0.000000E+00
 7.000000E-01  3.500000E-01  0.000000E+00
 7.500000E-01  3.500000E-01  0.000000E+00
 8.000000E-01  3.500000E-01  0.000000E+00
 8.500000E-01  3.500000E-01  0.000000E+00
 9.000000E-01  3.500000E-01  0.000000E+00
 9.500000E-01  3.500000E-01  0.000000E+00
 6.000000E-01  4.000000E-01  0.000000E+00
 6.500000E-01  4.000000E-01  0.000000E+00
 7.000000E-01  4.000000E-01  0.000000E+00
 7.500000E-01  4.000000E-01  0.000000E+00
 8.000000E-01  4.000000E-01  0.000000E+00
 8.500000E-01  4.000000E-01  0.000000E+00
 9.000000E-01  4.000000E-01  0.000000E+00
 9.500000E-01  4.000000E-01  0.000000E+00
 6.000000E-01  4.500000E-01  0.000000E+00
 6.500000E-01  4.500000E-01  0.000000E+00
 7.000000E-01  4.500000E-01  0.000000E+00
 7.500000E-01  4.500000E-01  0.000000E+00
 8.000000E-01  4.500000E-01  0.000000E+00
 8.500000E-01  4.500000E-01  0.000000E+00
 9.000000E-01  4.500000E-01  0.000000E+00
 9.500000E-01  4.500000E-01  0.000000E+00
 6.000000E-01  5.000000E-01  0.000000E+00
 6.500000E-01  5.000000E-01  0.000000E+00
 7.000000E-01  5.000000E-01  0.000000E+00
 7.500000E-01  5.000000E-01  0.000000E+00
 8.000000E-01  5.000000E-01  0.000000E+00
 8.500000E-01  5.000000E-01  0.000000E+00
 9.000000E-01  5.000000E-01  0.000000E+00
 9.500000E-01  5.000000E-01  0.000000E+00
 6.000000E-01  5.500000E-01  0.000000E+00
 6.500000E-01  5.500000E-01  0.000000E+00
 7.000000E-01  5.500000E-01  0.000000E+00
 7.500000E-01  5.500000E-01  0.000000E+00
 8.000000E-01  5.500000E-01  0.000000E+00
 8.500000E-01  5.500000E-01  0.000000E+00
 9.000000E-01  5.500000E-01  0.000000E+00
 9.500000E-01  5.500000E-01  0.000000E+00
 6.000000E-01  6.000000E-01  0.000000E+00
 6.500000E-01  6.000000E-01  0.000000E+00
 7.000000E-01  6.000000E-01  0.000000E+00
 7.500000E-01  6.000000E-01  0.000000E+00
 8.000000E-01  6.000000E-01  0.000000E+00
 8.500000E-01  6.000000E-01  0.000000E+00
 9.000000E-01  6.000000E-01  0.000000E+00
 9.500000E-01  6.000000E-01  0.000000E+00
 6.000000E-01  6.500000E-01  0.000000E+00
 6.500000E-01  6.500000E-01  0.000000E+00
 7.000000E-01  6.500000E-01  0.000000E+00
 7.500000E-01  6.500000E-01  0.000000E+00
 8.000000E-01  6.500000E-01  0.000000E+00
 8.500000E-01  6.500000E-01  0.000000E+00
 9.000000E-01  6.500000E-01  0.000000E+00
 9.500000E-01  6.500000E-01  0.000000E+00
 6.000000E-01  7.000000E-01  0.000000E+00
 6.500000E-01  7.000000E-01  0.000000E+00
 7.000000E-01  7.000000E-01  0.000000E+00
 7.500000E-01  7.000000E-01  0.000000E+00
 8.000000E-01  7.000000E-01  0.000000E+00
 8.500000E-01  7.000000E-01  0.000000E+00
 9.000000E-01  7.000000E-01  0.000000E+00
 9.500000E-01  7.000000E-01  0.000000E+00
 6.000000E-01  7.500000E-01  0.000000E+00
 6.500000E-01  7.500000E-01  0.000000E+00
 7.000000E-01  7.500000E-01  0.000000E+00
 7.500000E-01  7.500000E-01  0.000000E+00
 8.000000E-01  7.500000E-01  0.000000E+00
 8.500000E-01  7.500000E-01  0.000000E+00
 9.000000E-01  7.500000E-01  0.000000E+00
 9.500000E-01  7.500000E-01  0.000000E+00
CELLS          140         560
           3           0           1           8
           3           1           9           8
           3           1           2           9
           3           2          10           9
           3           2           3          10
           3           3          11          10
           3           3           4          11
           3           4          12          11
           3           4           5          12
           3           5          13          12
           3           5           6          13
           3           6          14          13
           3           6           7          14
           3           7          15          14
           3           8           9          16
           3           9          17          16
           3           9          10          17
           3          10          18          17
           3          10          11          18
           3          11          19          18
           3          11          12          19
           3          12          20          19
           3          12          13          20
           3          13          21          20
           3          13          14          21
           3          14          22          21
           3          14          15          22
           3          15          23          22
           3          16          17          24
           3          17          25          24
           3          17          18          25
           3          18          26          25
           3          18          19          26
           3          19          27          26
           3          19          20          27
           3          20          28          27
           3          20          21          28
           3          21          29          28
           3          21          22          29
           3          22          30          29
           3          22          23          30
           3          23          31          30
           3          24          25          32
           3          25          33          32
           3          25          26          33
           3          26          34          33
           3          26          27          34
           3          27          35          34
           3          27          28          35
           3          28          36          35
           3          28          29          36
           3          29          37          36
           3          29          30          37
           3          30          38          37
           3          30          31          38
           3          31          39          38
           3          32          33          40
           3          33          41          40
           3          33          34          41
           3          34          42          41
           3          34          35          42
           3          35          43          42
           3          35          36          43
           3          36          44          43
           3          36          37          44
           3          37          45          44
           3          37          38          45
           3          38          46          45
           3          38          39          46
           3          39          47          46
           3          40          41          48
           3          41          49          48
           3          41          42          49
           3          42          50          49
           3          42          43          50
           3          43          51          50
           3          43          44          51
           3          44          52          51
           3          44          45          52
           3          45          53          52
           3          45          46          53
           3          46          54          53
           3          46          47          54
           3          47          55          54
           3          48          49          56
           3          49          57          56
           3          49          50          57
           3          50          58          57
           3          50          51          58
           3          51          59          58
           3          51          52          59
           3          52          60          59
           3          52          53          60
           3          53          61          60
           3          53          54          61
           3          54          62          61
           3          54          55          62
           3          55          63          62
           3          56          57          64
           3          57          65          64
           3          57          58          65
           3          58          66          65
           3          58          59          66
           3          59          67          66
           3          59          60          67
           3          60          68          67
           3          60          61          68
           3          61          69          68
           3          61          62          69
           3          62          70          69
           3          62          63          70
           3          63          71          70
           3          64          65          72
           3          65          73          72
           3          65          66          73
           3          66          74          73
           3          66          67          74
           3          67          75          74
           3          67          68          75
           3          68          76          75
           3          68          69          76
           3          69          77          76
           3          69          70          77
           3          70          78          77
           3          70          71          78
           3          71          79          78
           3          72          73          80
           3          73          81          80
           3          73          74          81
           3          74          82          81
           3          74          75          82
           3          75          83          82
           3          75          76          83
           3          76          84          83
           3          76          77          84
           3          77          85          84
           3          77          78          85
           3          78          86          85
           3          78          79          86
           3          79          87          86
CELL_TYPES          140
5
5
5
5
5
5
5
5
5
5
5
5
5
5
5
5
5
5
5
5
5
5
5
5
5
5
5
5
5
5
5
5
5
5
5
5
5
5
5
5
5
5
5
5
5
5
5
5
5
5
5
5
5
5
5
5
5
5
5
5
5
5
5
5
5
5
5
5
5
5
5
5
5
5
5
5
5
5
5
5
5
5
5
5
5
5
5
5
5
5
5
5
5
5
5
5
5
5
5
5
5
5
5
5
5
5
5
5
5
5
5
5
5
5
5
5
5
5
5
5
5
5
5
5
5
5
5
5
5
5
5
5
5
5
5
5
5
5
5
5
POINT_DATA           88
 SCALARS measuredDisp11 float  1                   
LOOKUP_TABLE default
 1.60000E-04
 2.36000E-04
 3.78000E-04
 5.10000E-04
 5.99000E-04
 7.16000E-04
 8.28000E-04
 9.85000E-04
 1.80000E-04
 2.39000E-04
 4.14000E-04
 4.16000E-04
 5.88000E-04
 7.34000E-04
 8.06000E-04
 9.81000E-04
 1.76000E-04
 3.33000E-04
 3.51000E-04
 3.74000E-04
 5.56000E-04
 6.67000E-04
 7.67000E-04
 8.85000E-04
 2.18000E-04
 3.55000E-04
 4.39000E-04
 5.02000E-04
 5.04000E-04
 5.75000E-04
 6.77000E-04
 7.85000E-04
 2.65000E-04
 4.09000E-04
 5.20000E-04
 5.11000E-04
 5.49000E-04
 5.82000E-04
 5.87000E-04
 8.10000E-04
 2.37000E-04
 3.57000E-04
 5.39000E-04
 4.27000E-04
 5.30000E-04
 6.13000E-04
 6.18000E-04
 6.40000E-04
 2.28000E-04
 3.42000E-04
 5.19000E-04
 4.62000E-04
 5.10000E-04
 6.02000E-04
 5.97000E-04
 8.01000E-04
 1.86000E-04
 3.10000E-04
 4.09000E-04
 5.36000E-04
 5.25000E-04
 5.93000E-04
 6.97000E-04
 7.79000E-04
 1.95000E-04
 2.72000E-04
 3.78000E-04
 4.81000E-04
 5.57000E-04
 6.59000E-04
 8.34000E-04
 8.67000E-04
 1.60000E-04
 2.57000E-04
 4.53000E-04
 4.60000E-04
 5.96000E-04
 7.29000E-04
 8.04000E-04
 9.40000E-04
 1.89000E-04
 2.52000E-04
 3.96000E-04
 4.41000E-04
 5.92000E-04
 7.39000E-04
 9.06000E-04
 9.78000E-04
 SCALARS measuredDisp12 float  1                   
LOOKUP_TABLE default
 1.52300E-03
 1.49400E-03
 1.47800E-03
 1.37500E-03
 1.37100E-03
 1.43200E-03
 1.39700E-03
 1.51600E-03
 1.38600E-03
 1.43000E-03
 1.32100E-03
 1.30900E-03
 1.23200E-03
 1.34200E-03
 1.36900E-03
 1.42900E-03
 1.33200E-03
 1.28300E-03
 1.24700E-03
 1.17400E-03
 1.18700E-03
 1.18400E-03
 1.29500E-03
 1.29500E-03
 1.24200E-03
 1.18800E-03
 1.17600E-03
 1.10000E-03
 1.03800E-03
 1.10900E-03
 1.10200E-03
 1.21700E-03
 1.17100E-03
 1.07600E-03
 1.04500E-03
 1.00900E-03
 1.10900E-03
 1.02900E-03
 1.06300E-03
 1.06500E-03
 1.01900E-03
 1.01900E-03
 1.02100E-03
 9.31000E-04
 1.04200E-03
 1.03900E-03
 9.84000E-04
 9.95000E-04
 8.93000E-04
 9.46000E-04
 9.82000E-04
 9.78000E-04
 9.54000E-04
 9.32000E-04
 9.23000E-04
 9.56000E-04
 7.84000E-04
 7.58000E-04
 8.28000E-04
 9.00000E-04
 8.74000E-04
 9.25000E-04
 9.24000E-04
 8.07000E-04
 6.60000E-04
 7.70000E-04
 8.23000E-04
 8.59000E-04
 8.85000E-04
 8.07000E-04
 7.87000E-04
 7.12000E-04
 6.24000E-04
 5.67000E-04
 6.54000E-04
 7.09000E-04
 7.34000E-04
 7.27000E-04
 6.30000E-04
 5.98000E-04
 5.12000E-04
 4.59000E-04
 5.47000E-04
 5.89000E-04
 5.95000E-04
 6.48000E-04
 5.20000E-04
 5.02000E-04
 SCALARS measuredDisp13 float  1                   
LOOKUP_TABLE default
 4.29600E-03
 4.18100E-03
 3.88600E-03
 3.35800E-03
 2.89100E-03
 2.65600E-03
 2.88000E-03
 3.45500E-03
 3.90000E-03
 4.22100E-03
 4.36400E-03
 4.57000E-03
 4.40600E-03
 4.19500E-03
 3.50900E-03
 2.40800E-03
 1.94000E-03
 2.46100E-03
 3.62000E-03
 4.16300E-03
 4.47600E-03
 4.46600E-03
 4.78600E-03
 4.80500E-03
 4.93700E-03
 4.25500E-03
 2.31600E-03
 1.88700E-03
 2.38500E-03
 4.28500E-03
 4.91200E-03
 4.83700E-03
 4.72200E-03
 4.96400E-03
 5.38100E-03
 6.06900E-03
 6.07100E-03
 4.27400E-03
 4.92200E-03
 4.25300E-03
 6.04200E-03
 5.92800E-03
 5.38200E-03
 4.95300E-03
 5.07000E-03
 5.52600E-03
 6.50000E-03
 6.48300E-03
 4.17200E-03
 4.60700E-03
 4.15100E-03
 6.49300E-03
 6.53600E-03
 5.54200E-03
 4.97000E-03
 4.91300E-03
 5.20500E-03
 5.77700E-03
 5.89600E-03
 4.72800E-03
 5.21500E-03
 4.68700E-03
 5.95300E-03
 5.91800E-03
 5.28800E-03
 4.83100E-03
 4.44600E-03
 4.59100E-03
 4.75900E-03
 4.39000E-03
 3.38200E-03
 3.30100E-03
 3.37800E-03
 4.42100E-03
 4.84600E-03
 4.59600E-03
 4.50300E-03
 4.02500E-03
 4.02900E-03
 4.05400E-03
 3.98400E-03
 3.87100E-03
 3.62800E-03
 3.77000E-03
 3.99600E-03
 4.05500E-03
 4.02200E-03
 4.00000E-03
 SCALARS predictedDisp11 float  1                  
LOOKUP_TABLE default
 2.10076E-04
 2.98199E-04
 3.78000E-04
 4.85755E-04
 6.13143E-04
 7.12853E-04
 8.28206E-04
 9.30789E-04
 2.24821E-04
 3.16476E-04
 4.12777E-04
 5.07900E-04
 6.03078E-04
 6.97300E-04
 7.85502E-04
 8.64909E-04
 2.30999E-04
 3.30237E-04
 4.27327E-04
 5.16689E-04
 6.01324E-04
 6.84373E-04
 7.65065E-04
 8.47481E-04
 2.50116E-04
 3.46657E-04
 4.39917E-04
 5.24704E-04
 6.03171E-04
 6.80020E-04
 7.57658E-04
 8.35105E-04
 2.72433E-04
 3.66310E-04
 4.53438E-04
 5.32953E-04
 6.07746E-04
 6.82218E-04
 7.59442E-04
 8.42412E-04
 2.89587E-04
 3.76617E-04
 4.60290E-04
 5.38136E-04
 6.12825E-04
 6.88706E-04
 7.70813E-04
 8.63250E-04
 2.77563E-04
 3.70161E-04
 4.57045E-04
 5.37478E-04
 6.13829E-04
 6.90257E-04
 7.70282E-04
 8.52542E-04
 2.58602E-04
 3.54161E-04
 4.46250E-04
 5.31850E-04
 6.12000E-04
 6.90088E-04
 7.69613E-04
 8.55043E-04
 2.26076E-04
 3.28701E-04
 4.30749E-04
 5.24498E-04
 6.11472E-04
 6.96118E-04
 7.81850E-04
 8.73264E-04
 2.01558E-04
 3.12135E-04
 4.16626E-04
 5.15396E-04
 6.10499E-04
 7.06618E-04
 8.00196E-04
 8.95337E-04
 2.18881E-04
 3.05103E-04
 3.84355E-04
 4.95013E-04
 6.01753E-04
 7.23999E-04
 8.44895E-04
 9.26943E-04
 SCALARS predictedDisp12 float  1                  
LOOKUP_TABLE default
 1.52300E-03
 1.49400E-03
 1.47800E-03
 1.37500E-03
 1.37100E-03
 1.43200E-03
 1.39700E-03
 1.51600E-03
 1.38600E-03
 1.38735E-03
 1.36065E-03
 1.31186E-03
 1.30243E-03
 1.32432E-03
 1.34352E-03
 1.42900E-03
 1.33200E-03
 1.29369E-03
 1.26111E-03
 1.23152E-03
 1.22300E-03
 1.23490E-03
 1.25728E-03
 1.29500E-03
 1.24200E-03
 1.19969E-03
 1.16984E-03
 1.15048E-03
 1.14551E-03
 1.15392E-03
 1.17322E-03
 1.21700E-03
 1.17100E-03
 1.11050E-03
 1.08559E-03
 1.07432E-03
 1.07223E-03
 1.07641E-03
 1.08109E-03
 1.06500E-03
 1.01900E-03
 1.00961E-03
 1.00260E-03
 9.99847E-04
 1.00020E-03
 1.00226E-03
 1.00306E-03
 9.95000E-04
 8.93000E-04
 9.10227E-04
 9.18684E-04
 9.24050E-04
 9.26952E-04
 9.27023E-04
 9.27809E-04
 9.56000E-04
 7.84000E-04
 8.11772E-04
 8.32090E-04
 8.45818E-04
 8.51798E-04
 8.48843E-04
 8.34321E-04
 8.07000E-04
 6.60000E-04
 7.06510E-04
 7.37922E-04
 7.60661E-04
 7.71179E-04
 7.68787E-04
 7.41696E-04
 7.12000E-04
 6.24000E-04
 6.02182E-04
 6.39757E-04
 6.71873E-04
 6.85737E-04
 6.92247E-04
 6.39263E-04
 5.98000E-04
 5.12000E-04
 4.59000E-04
 5.47000E-04
 5.89000E-04
 5.95000E-04
 6.48000E-04
 5.20000E-04
 5.02000E-04
 SCALARS predictedDisp13 float  1                  
LOOKUP_TABLE default
 4.12044E-03
 3.99739E-03
 3.62836E-03
 3.04240E-03
 2.83902E-03
 3.00656E-03
 3.00786E-03
 3.09921E-03
 3.90704E-03
 3.80734E-03
 3.54544E-03
 3.14106E-03
 3.05991E-03
 3.17254E-03
 3.27400E-03
 3.47454E-03
 3.70641E-03
 3.71875E-03
 3.59556E-03
 3.39424E-03
 3.35390E-03
 3.47378E-03
 3.65883E-03
 3.79433E-03
 3.84066E-03
 3.83338E-03
 3.74140E-03
 3.61188E-03
 3.57997E-03
 3.67621E-03
 3.84714E-03
 4.01244E-03
 4.25505E-03
 4.18431E-03
 3.96902E-03
 3.79301E-03
 3.72277E-03
 3.77114E-03
 3.90441E-03
 3.95053E-03
 4.61172E-03
 4.40970E-03
 4.11988E-03
 3.89691E-03
 3.77584E-03
 3.73904E-03
 3.72175E-03
 3.66993E-03
 4.55631E-03
 4.38821E-03
 4.12803E-03
 3.90998E-03
 3.78657E-03
 3.75949E-03
 3.79586E-03
 3.89310E-03
 4.37935E-03
 4.26697E-03
 4.04867E-03
 3.84797E-03
 3.74263E-03
 3.77317E-03
 3.95629E-03
 4.06966E-03
 4.08681E-03
 4.06052E-03
 3.92652E-03
 3.71490E-03
 3.58662E-03
 3.59872E-03
 3.81584E-03
 3.94862E-03
 4.09433E-03
 4.17590E-03
 3.90901E-03
 3.54994E-03
 3.34884E-03
 3.31011E-03
 3.66492E-03
 3.86423E-03
 4.41452E-03
 4.34092E-03
 3.86585E-03
 3.43714E-03
 3.15281E-03
 3.13498E-03
 3.62614E-03
 3.79286E-03
 SCALARS dual11 float  1                           
LOOKUP_TABLE default
-1.50542E-08
-6.48809E-09
 0.00000E+00
 1.43525E-08
 3.41828E-08
 5.45643E-08
 6.73976E-08
 7.96181E-08
-6.92469E-09
-1.34360E-10
 7.55030E-09
 1.88710E-08
 3.51445E-08
 4.78724E-08
 5.67121E-08
 6.75820E-08
 1.91221E-08
 2.25107E-08
 2.46384E-08
 2.78073E-08
 3.05384E-08
 3.15905E-08
 3.16743E-08
 3.58769E-08
 5.63005E-08
 5.15453E-08
 4.60506E-08
 3.79661E-08
 2.59048E-08
 1.06797E-08
 6.16777E-10
-8.81222E-09
 8.89007E-08
 7.65245E-08
 6.37325E-08
 4.51038E-08
 1.93895E-08
-4.95984E-09
-2.53270E-08
-4.45059E-08
 1.02596E-07
 8.53339E-08
 6.85269E-08
 4.51347E-08
 1.61087E-08
-1.00458E-08
-3.22042E-08
-5.56411E-08
 8.64228E-08
 7.21487E-08
 5.88717E-08
 3.91899E-08
 1.83580E-08
-1.94345E-10
-1.74947E-08
-3.62863E-08
 4.52032E-08
 4.11806E-08
 3.57476E-08
 2.89426E-08
 2.38285E-08
 1.92422E-08
 1.67422E-08
 1.40751E-08
-7.24016E-09
-1.83638E-09
 5.18505E-09
 1.64334E-08
 3.07389E-08
 4.72423E-08
 6.27961E-08
 7.63034E-08
-5.75139E-08
-3.86880E-08
-1.97210E-08
 7.48649E-09
 4.05440E-08
 7.28701E-08
 9.98735E-08
 1.22832E-07
-7.91364E-08
-5.48005E-08
-2.89816E-08
 6.43906E-09
 4.71407E-08
 8.43480E-08
 1.12248E-07
 1.36129E-07
 SCALARS dual12 float  1                           
LOOKUP_TABLE default
 0.00000E+00
 0.00000E+00
 0.00000E+00
 0.00000E+00
 0.00000E+00
 0.00000E+00
 0.00000E+00
 0.00000E+00
 0.00000E+00
-1.47745E-09
-3.22673E-08
-5.01815E-08
-6.26193E-08
-3.05417E-08
-3.21085E-09
 0.00000E+00
 0.00000E+00
-1.73873E-08
-4.86528E-08
-8.56353E-08
-9.34294E-08
-6.40447E-08
-1.87433E-08
 0.00000E+00
 0.00000E+00
-2.09800E-08
-4.75170E-08
-8.68364E-08
-9.45014E-08
-6.69922E-08
-4.07325E-08
 0.00000E+00
 0.00000E+00
-1.64387E-08
-3.26843E-08
-5.19813E-08
-2.89267E-08
-2.65421E-08
-1.89192E-08
 0.00000E+00
 0.00000E+00
 1.10118E-08
 1.80388E-08
 1.45003E-08
 4.26350E-08
 3.58954E-08
 1.22387E-08
 0.00000E+00
 0.00000E+00
 3.46955E-08
 6.87784E-08
 9.22551E-08
 1.00944E-07
 8.20503E-08
 4.73678E-08
 0.00000E+00
 0.00000E+00
 3.21369E-08
 9.05780E-08
 1.37359E-07
 1.45138E-07
 1.31745E-07
 8.60640E-08
 0.00000E+00
 0.00000E+00
 4.94293E-08
 1.10002E-07
 1.55263E-07
 1.65014E-07
 1.30315E-07
 7.53371E-08
 0.00000E+00
 0.00000E+00
 2.14348E-08
 6.25879E-08
 9.45927E-08
 1.00138E-07
 7.62301E-08
 3.58008E-08
 0.00000E+00
 0.00000E+00
 0.00000E+00
 0.00000E+00
 0.00000E+00
 0.00000E+00
 0.00000E+00
 0.00000E+00
 0.00000E+00
 SCALARS dual13 float  1                           
LOOKUP_TABLE default
-3.82629E-07
-5.00611E-07
-8.30829E-07
-1.12633E-06
-1.21708E-06
-1.00006E-06
-6.51403E-07
-4.73644E-07
-3.24070E-07
-4.59630E-07
-7.18004E-07
-9.35783E-07
-9.72263E-07
-8.02531E-07
-5.53440E-07
-4.32635E-07
-1.36897E-07
-1.97429E-07
-2.73310E-07
-3.42228E-07
-3.48731E-07
-3.18724E-07
-2.58494E-07
-2.22484E-07
 1.88328E-07
 2.29244E-07
 3.64812E-07
 5.02978E-07
 5.87495E-07
 4.86046E-07
 3.12772E-07
 2.29569E-07
 5.07929E-07
 6.74025E-07
 1.03523E-06
 1.36273E-06
 1.46262E-06
 1.24024E-06
 8.70082E-07
 6.42085E-07
 6.82435E-07
 9.14860E-07
 1.36834E-06
 1.73109E-06
 1.77039E-06
 1.50077E-06
 1.08202E-06
 8.29035E-07
 5.38180E-07
 7.28983E-07
 1.11644E-06
 1.42459E-06
 1.44669E-06
 1.26278E-06
 9.44448E-07
 7.38379E-07
 1.77740E-07
 2.94501E-07
 4.87526E-07
 6.24740E-07
 6.36819E-07
 5.27105E-07
 3.44742E-07
 2.62974E-07
-2.28756E-07
-2.86265E-07
-4.35016E-07
-5.51001E-07
-6.01189E-07
-5.74243E-07
-4.57659E-07
-3.32598E-07
-6.78017E-07
-8.76140E-07
-1.28387E-06
-1.59991E-06
-1.65193E-06
-1.41273E-06
-1.00565E-06
-7.41762E-07
-8.24589E-07
-1.11571E-06
-1.64474E-06
-2.01782E-06
-2.02186E-06
-1.65406E-06
-1.12450E-06
-8.52547E-07
 SCALARS NLP float  1                              
LOOKUP_TABLE default
 0.00000E+00
 0.00000E+00
 0.00000E+00
 0.00000E+00
 0.00000E+00
 0.00000E+00
 0.00000E+00
 0.00000E+00
 0.00000E+00
 0.00000E+00
 0.00000E+00
 0.00000E+00
 0.00000E+00
 0.00000E+00
 0.00000E+00
 0.00000E+00
 0.00000E+00
 0.00000E+00
 0.00000E+00
 0.00000E+00
 0.00000E+00
 0.00000E+00
 0.00000E+00
 0.00000E+00
 0.00000E+00
 0.00000E+00
 0.00000E+00
 0.00000E+00
 0.00000E+00
 0.00000E+00
 0.00000E+00
 0.00000E+00
 0.00000E+00
 0.00000E+00
 0.00000E+00
 0.00000E+00
 0.00000E+00
 0.00000E+00
 0.00000E+00
 0.00000E+00
 0.00000E+00
 0.00000E+00
 0.00000E+00
 0.00000E+00
 0.00000E+00
 0.00000E+00
 0.00000E+00
 0.00000E+00
 0.00000E+00
 0.00000E+00
 0.00000E+00
 0.00000E+00
 0.00000E+00
 0.00000E+00
 0.00000E+00
 0.00000E+00
 0.00000E+00
 0.00000E+00
 0.00000E+00
 0.00000E+00
 0.00000E+00
 0.00000E+00
 0.00000E+00
 0.00000E+00
 0.00000E+00
 0.00000E+00
 0.00000E+00
 0.00000E+00
 0.00000E+00
 0.00000E+00
 0.00000E+00
 0.00000E+00
 0.00000E+00
 0.00000E+00
 0.00000E+00
 0.00000E+00
 0.00000E+00
 0.00000E+00
 0.00000E+00
 0.00000E+00
 0.00000E+00
 0.00000E+00
 0.00000E+00
 0.00000E+00
 0.00000E+00
 0.00000E+00
 0.00000E+00
 0.00000E+00
 SCALARS SM float  1                               
LOOKUP_TABLE default
 1.03876E+00
 1.02499E+00
 1.02167E+00
 1.00000E+00
 1.00388E+00
 1.00000E+00
 1.01864E+00
 1.03116E+00
 1.02387E+00
 1.04062E+00
 1.00000E+00
 1.00564E+00
 1.00000E+00
 1.01902E+00
 1.03074E+00
 1.03429E+00
 1.04197E+00
 1.02965E+00
 1.03162E+00
 1.02255E+00
 1.02545E+00
 1.03160E+00
 1.03906E+00
 1.04718E+00
 1.06229E+00
 1.06713E+00
 1.07596E+00
 1.09157E+00
 1.10650E+00
 1.09737E+00
 1.08511E+00
 1.07754E+00
 1.08354E+00
 1.10068E+00
 1.12276E+00
 1.14995E+00
 1.15372E+00
 1.14071E+00
 1.12464E+00
 1.09662E+00
 1.09721E+00
 1.10933E+00
 1.14267E+00
 1.15213E+00
 1.15838E+00
 1.14899E+00
 1.11892E+00
 1.10150E+00
 1.08835E+00
 1.10970E+00
 1.12685E+00
 1.14649E+00
 1.14734E+00
 1.13846E+00
 1.11804E+00
 1.08966E+00
 1.06609E+00
 1.07634E+00
 1.09256E+00
 1.10135E+00
 1.09845E+00
 1.08575E+00
 1.06565E+00
 1.05105E+00
 1.04200E+00
 1.03325E+00
 1.00920E+00
 1.00000E+00
 1.00000E+00
 1.00000E+00
 1.00000E+00
 1.01100E+00
 1.01818E+00
 1.00000E+00
 1.00000E+00
 1.00000E+00
 1.00000E+00
 1.00000E+00
 1.00000E+00
 1.00000E+00
 1.00193E+00
 1.00000E+00
 1.00000E+00
 1.00000E+00
 1.00000E+00
 1.00000E+00
 1.00000E+00
 1.01567E+00
 SCALARS gradient1 float  1                        
LOOKUP_TABLE default
 0.00000E+00
 0.00000E+00
 0.00000E+00
 0.00000E+00
 0.00000E+00
 0.00000E+00
 0.00000E+00
 0.00000E+00
 0.00000E+00
 0.00000E+00
 0.00000E+00
 0.00000E+00
 0.00000E+00
 0.00000E+00
 0.00000E+00
 0.00000E+00
 0.00000E+00
 0.00000E+00
 0.00000E+00
 0.00000E+00
 0.00000E+00
 0.00000E+00
 0.00000E+00
 0.00000E+00
 0.00000E+00
 0.00000E+00
 0.00000E+00
 0.00000E+00
 0.00000E+00
 0.00000E+00
 0.00000E+00
 0.00000E+00
 0.00000E+00
 0.00000E+00
 0.00000E+00
 0.00000E+00
 0.00000E+00
 0.00000E+00
 0.00000E+00
 0.00000E+00
 0.00000E+00
 0.00000E+00
 0.00000E+00
 0.00000E+00
 0.00000E+00
 0.00000E+00
 0.00000E+00
 0.00000E+00
 0.00000E+00
 0.00000E+00
 0.00000E+00
 0.00000E+00
 0.00000E+00
 0.00000E+00
 0.00000E+00
 0.00000E+00
 0.00000E+00
 0.00000E+00
 0.00000E+00
 0.00000E+00
 0.00000E+00
 0.00000E+00
 0.00000E+00
 0.00000E+00
 0.00000E+00
 0.00000E+00
 0.00000E+00
 0.00000E+00
 0.00000E+00
 0.00000E+00
 0.00000E+00
 0.00000E+00
 0.00000E+00
 0.00000E+00
 0.00000E+00
 0.00000E+00
 0.00000E+00
 0.00000E+00
 0.00000E+00
 0.00000E+00
 0.00000E+00
 0.00000E+00
 0.00000E+00
 0.00000E+00
 0.00000E+00
 0.00000E+00
 0.00000E+00
 0.00000E+00
 SCALARS gradient2 float  1                        
LOOKUP_TABLE default
 2.04398E-12
-1.90616E-12
 5.30040E-12
 1.78378E-12
 9.62046E-12
 1.81618E-12
 3.40837E-13
 5.98169E-13
-2.81898E-12
 1.07545E-11
-5.42652E-13
 1.13362E-11
 2.45661E-12
 6.38430E-12
 2.75454E-12
 1.95593E-12
 2.28182E-12
-3.27533E-12
 3.63022E-12
 2.08685E-12
 2.08820E-12
 1.51881E-12
 1.64783E-12
 1.12466E-12
-8.75471E-13
-1.31103E-12
-2.17172E-12
-3.59601E-12
-5.28800E-12
-4.61639E-12
-2.72200E-12
-1.75111E-12
-2.42442E-12
-3.93067E-12
-6.77191E-12
-9.58349E-12
-9.01404E-12
-9.75208E-12
-3.96158E-12
-4.57108E-12
-2.92429E-12
-6.55664E-12
-7.14107E-12
-1.21109E-11
-6.70270E-12
-7.86016E-12
-8.60025E-12
-4.45427E-12
-4.13990E-12
-1.99127E-12
-8.46942E-12
-8.35893E-12
-8.84579E-12
-7.85522E-12
-5.89054E-12
-3.18303E-12
-1.30541E-12
-2.55184E-12
-4.42210E-12
-5.54191E-12
-5.52346E-12
-4.30989E-12
-1.59725E-12
 1.22483E-13
 2.40593E-13
 1.74294E-12
 3.67000E-12
 2.16972E-12
 4.21303E-12
 5.05337E-12
 3.10757E-12
 4.49824E-12
 3.86216E-12
 6.10528E-12
 1.16540E-11
 1.82150E-11
 1.98024E-11
 1.58247E-11
 1.12523E-11
 1.34992E-12
 3.03967E-12
 4.81231E-12
 9.18276E-12
 1.22820E-11
 1.17347E-11
 7.69416E-12
 4.16303E-12
 2.46530E-12
CELL_DATA         140
SCALARS elemDataMatch  float  1
LOOKUP_TABLE default
 0.00000E+00
 1.89507E-13
 1.89507E-13
 1.77089E-13
 1.63730E-13
 1.76400E-13
 8.52985E-16
 5.38594E-13
 5.16747E-13
 4.19589E-13
 3.25650E-14
 1.47108E-13
 6.76180E-14
 6.76180E-14
 1.89507E-13
 1.53906E-13
 1.85653E-13
 3.14565E-13
 2.59643E-13
 4.72104E-13
 1.32231E-12
 1.89808E-12
 7.52378E-13
 4.68251E-13
 1.88156E-13
 2.50716E-13
 3.15901E-13
 1.48183E-13
 1.19129E-14
 3.91594E-14
 9.28124E-14
 3.95560E-14
 4.07891E-13
 8.47140E-13
 1.45243E-12
 2.76230E-12
 2.77301E-12
 2.99548E-12
 4.89978E-13
 7.63758E-13
 3.96773E-13
 5.28415E-13
 1.42275E-14
 1.80249E-13
 1.54563E-13
 3.97267E-13
 5.95994E-13
 1.71455E-12
 3.55431E-12
 1.85890E-12
 1.47434E-12
 4.53421E-13
 1.87971E-12
 1.37201E-12
 6.96706E-13
 3.40854E-14
 1.24016E-13
 9.94452E-14
 3.77211E-13
 1.16556E-13
 7.24456E-13
 1.18470E-12
 1.03356E-12
 4.13209E-13
 3.29062E-13
 3.28871E-13
 2.47532E-13
 1.06275E-13
 1.07816E-13
 3.78244E-14
 9.19188E-15
 1.77497E-13
 2.99355E-13
 1.01206E-12
 4.81935E-13
 7.29365E-13
 5.27158E-13
 1.06607E-12
 7.80108E-13
 3.56002E-13
 1.17266E-13
 3.99869E-14
 4.97788E-14
 2.40893E-15
 1.33301E-13
 2.34118E-13
 5.33005E-13
 3.61814E-13
 1.02839E-12
 8.69152E-13
 1.29434E-12
 7.73879E-13
 2.18222E-13
 8.85202E-13
 6.07979E-13
 2.07265E-12
 7.95224E-13
 8.37738E-13
 3.01188E-13
 3.65463E-13
 3.63065E-13
 1.67499E-12
 1.48237E-12
 3.97384E-12
 2.27227E-12
 4.06482E-12
 3.34731E-12
 3.76492E-12
 2.96553E-12
 2.16415E-12
 1.47474E-12
 2.13796E-13
 4.19898E-13
 3.16154E-13
 1.32101E-12
 6.66284E-13
 2.92610E-12
 1.75338E-12
 4.48690E-12
 2.93481E-12
 2.96165E-12
 1.02573E-12
 9.74393E-13
 4.35308E-13
 1.79021E-13
 8.93717E-15
 1.28932E-13
 1.28932E-13
 9.78666E-14
 2.11319E-14
 2.19805E-13
 1.43588E-13
 5.72881E-13
 2.42638E-13
 5.43169E-13
 1.25812E-13
 1.01217E-13
 8.93717E-15
 8.93717E-15
 0.00000E+00
SCALARS elemRegul  float  1
LOOKUP_TABLE default
 2.53523E-14
 2.86375E-14
 1.99743E-14
 5.75480E-14
 3.83055E-14
 9.97143E-15
 8.56309E-15
 8.56309E-15
 6.87193E-15
 3.36208E-14
 3.32877E-14
 2.10609E-14
 2.17669E-14
 5.93322E-15
 3.08255E-14
 2.06142E-14
 5.25937E-14
 3.95997E-14
 4.01468E-14
 2.39879E-14
 2.22833E-14
 3.20189E-14
 3.97138E-14
 1.75064E-14
 2.14958E-14
 1.39709E-14
 1.13125E-14
 1.90443E-14
 2.97056E-14
 4.72357E-14
 4.69112E-14
 5.65110E-14
 5.65712E-14
 8.84582E-14
 8.63544E-14
 1.03019E-13
 1.01605E-13
 8.30083E-14
 8.27479E-14
 5.95728E-14
 5.84553E-14
 3.91106E-14
 2.72399E-14
 4.70886E-14
 4.33604E-14
 6.46944E-14
 6.16774E-14
 8.05008E-14
 7.53238E-14
 5.92115E-14
 6.01159E-14
 5.65583E-14
 5.62978E-14
 5.33424E-14
 5.03163E-14
 4.23820E-14
 2.74090E-14
 1.86091E-14
 2.96517E-14
 4.85398E-14
 4.21210E-14
 1.21425E-14
 5.45142E-15
 9.75975E-15
 1.72774E-14
 1.56557E-14
 2.25968E-14
 3.82633E-14
 3.57579E-14
 2.26204E-14
 1.87661E-14
 2.67025E-14
 4.16802E-14
 2.91601E-14
 2.30432E-14
 2.55425E-14
 1.05358E-14
 1.38480E-14
 1.81216E-14
 1.72194E-14
 3.98272E-14
 2.55523E-14
 2.18089E-14
 3.84377E-14
 3.85631E-14
 4.36357E-14
 4.68953E-14
 4.74162E-14
 4.93905E-14
 5.74842E-14
 5.64361E-14
 6.12239E-14
 6.21161E-14