# vtk DataFile Version 2.0
Output of NLACE
ASCII
DATASET UNSTRUCTURED_GRID
POINTS           88 FLOAT
 6.000000E-01  2.500000E-01  0.000000E+00
 6.500000E-01  2.500000E-01  0.000000E+00
 7.000000E-01  2.500000E-01  0.000000E+00
 7.500000E-01  2.500000E-01  0.000000E+00
 8.000000E-01  2.500000E-01  0.000000E+00
 8.500000E-01  2.500000E-01  0.000000E+00
 9.000000E-01  2.500000E-01  0.000000E+00
 9.500000E-01  2.500000E-01  0.000000E+00
 6.000000E-01  3.000000E-01  0.000000E+00
 6.500000E-01  3.000000E-01  0.000000E+00
 7.000000E-01  3.000000E-01  0.000000E+00
 7.500000E-01  3.000000E-01  0.000000E+00
 8.000000E-01  3.000000E-01  0.000000E+00
 8.500000E-01  3.000000E-01  0.000000E+00
 9.000000E-01  3.000000E-01  0.000000E+00
 9.500000E-01  3.000000E-01  0.000000E+00
 6.000000E-01  3.500000E-01  0.000000E+00
 6.500000E-01  3.500000E-01  0.000000E+00
 7.000000E-01  3.500000E-01  0.000000E+00
 7.500000E-01  3.500000E-01  0.000000E+00
 8.000000E-01  3.500000E-01  0.000000E+00
 8.500000E-01  3.500000E-01  0.000000E+00
 9.000000E-01  3.500000E-01  0.000000E+00
 9.500000E-01  3.500000E-01  0.000000E+00
 6.000000E-01  4.000000E-01  0.000000E+00
 6.500000E-01  4.000000E-01  0.000000E+00
 7.000000E-01  4.000000E-01  0.000000E+00
 7.500000E-01  4.000000E-01  0.000000E+00
 8.000000E-01  4.000000E-01  0.000000E+00
 8.500000E-01  4.000000E-01  0.000000E+00
 9.000000E-01  4.000000E-01  0.000000E+00
 9.500000E-01  4.000000E-01  0.000000E+00
 6.000000E-01  4.500000E-01  0.000000E+00
 6.500000E-01  4.500000E-01  0.000000E+00
 7.000000E-01  4.500000E-01  0.000000E+00
 7.500000E-01  4.500000E-01  0.000000E+00
 8.000000E-01  4.500000E-01  0.000000E+00
 8.500000E-01  4.500000E-01  0.000000E+00
 9.000000E-01  4.500000E-01  0.000000E+00
 9.500000E-01  4.500000E-01  0.000000E+00
 6.000000E-01  5.000000E-01  0.000000E+00
 6.500000E-01  5.000000E-01  0.000000E+00
 7.000000E-01  5.000000E-01  0.000000E+00
 7.500000E-01  5.000000E-01  0.000000E+00
 8.000000E-01  5.000000E-01  0.000000E+00
 8.500000E-01  5.000000E-01  0.000000E+00
 9.000000E-01  5.000000E-01  0.000000E+00
 9.500000E-01  5.000000E-01  0.000000E+00
 6.000000E-01  5.500000E-01  0.000000E+00
 6.500000E-01  5.500000E-01  0.000000E+00
 7.000000E-01  5.500000E-01  0.000000E+00
 7.500000E-01  5.500000E-01  0.000000E+00
 8.000000E-01  5.500000E-01  0.000000E+00
 8.500000E-01  5.500000E-01  0.000000E+00
 9.000000E-01  5.500000E-01  0.000000E+00
 9.500000E-01  5.500000E-01  0.000000E+00
 6.000000E-01  6.000000E-01  0.000000E+00
 6.500000E-01  6.000000E-01  0.000000E+00
 7.000000E-01  6.000000E-01  0.000000E+00
 7.500000E-01  6.000000E-01  0.000000E+00
 8.000000E-01  6.000000E-01  0.000000E+00
 8.500000E-01  6.000000E-01  0.000000E+00
 9.000000E-01  6.000000E-01  0.000000E+00
 9.500000E-01  6.000000E-01  0.000000E+00
 6.000000E-01  6.500000E-01  0.000000E+00
 6.500000E-01  6.500000E-01  0.000000E+00
 7.000000E-01  6.500000E-01  0.000000E+00
 7.500000E-01  6.500000E-01  0.000000E+00
 8.000000E-01  6.500000E-01  0.000000E+00
 8.500000E-01  6.500000E-01  0.000000E+00
 9.000000E-01  6.500000E-01  0.000000E+00
 9.500000E-01  6.500000E-01  0.000000E+00
 6.000000E-01  7.000000E-01  0.000000E+00
 6.500000E-01  7.000000E-01  0.000000E+00
 7.000000E-01  7.000000E-01  0.000000E+00
 7.500000E-01  7.000000E-01  0.000000E+00
 8.000000E-01  7.000000E-01  0.000000E+00
 8.500000E-01  7.000000E-01  0.000000E+00
 9.000000E-01  7.000000E-01  0.000000E+00
 9.500000E-01  7.000000E-01  0.000000E+00
 6.000000E-01  7.500000E-01  0.000000E+00
 6.500000E-01  7.500000E-01  0.000000E+00
 7.000000E-01  7.500000E-01  0.000000E+00
 7.500000E-01  7.500000E-01  0.000000E+00
 8.000000E-01  7.500000E-01  0.000000E+00
 8.500000E-01  7.500000E-01  0.000000E+00
 9.000000E-01  7.500000E-01  0.000000E+00
 9.500000E-01  7.500000E-01  0.000000E+00
CELLS          140         560
           3           0           1           8
           3           1           9           8
           3           1           2           9
           3           2          10           9
           3           2           3          10
           3           3          11          10
           3           3           4          11
           3           4          12          11
           3           4           5          12
           3           5          13          12
           3           5           6          13
           3           6          14          13
           3           6           7          14
           3           7          15          14
           3           8           9          16
           3           9          17          16
           3           9          10          17
           3          10          18          17
           3          10          11          18
           3          11          19          18
           3          11          12          19
           3          12          20          19
           3          12          13          20
           3          13          21          20
           3          13          14          21
           3          14          22          21
           3          14          15          22
           3          15          23          22
           3          16          17          24
           3          17          25          24
           3          17          18          25
           3          18          26          25
           3          18          19          26
           3          19          27          26
           3          19          20          27
           3          20          28          27
           3          20          21          28
           3          21          29          28
           3          21          22          29
           3          22          30          29
           3          22          23          30
           3          23          31          30
           3          24          25          32
           3          25          33          32
           3          25          26          33
           3          26          34          33
           3          26          27          34
           3          27          35          34
           3          27          28          35
           3          28          36          35
           3          28          29          36
           3          29          37          36
           3          29          30          37
           3          30          38          37
           3          30          31          38
           3          31          39          38
           3          32          33          40
           3          33          41          40
           3          33          34          41
           3          34          42          41
           3          34          35          42
           3          35          43          42
           3          35          36          43
           3          36          44          43
           3          36          37          44
           3          37          45          44
           3          37          38          45
           3          38          46          45
           3          38          39          46
           3          39          47          46
           3          40          41          48
           3          41          49          48
           3          41          42          49
           3          42          50          49
           3          42          43          50
           3          43          51          50
           3          43          44          51
           3          44          52          51
           3          44          45          52
           3          45          53          52
           3          45          46          53
           3          46          54          53
           3          46          47          54
           3          47          55          54
           3          48          49          56
           3          49          57          56
           3          49          50          57
           3          50          58          57
           3          50          51          58
           3          51          59          58
           3          51          52          59
           3          52          60          59
           3          52          53          60
           3          53          61          60
           3          53          54          61
           3          54          62          61
           3          54          55          62
           3          55          63          62
           3          56          57          64
           3          57          65          64
           3          57          58          65
           3          58          66          65
           3          58          59          66
           3          59          67          66
           3          59          60          67
           3          60          68          67
           3          60          61          68
           3          61          69          68
           3          61          62          69
           3          62          70          69
           3          62          63          70
           3          63          71          70
           3          64          65          72
           3          65          73          72
           3          65          66          73
           3          66          74          73
           3          66          67          74
           3          67          75          74
           3          67          68          75
           3          68          76          75
           3          68          69          76
           3          69          77          76
           3          69          70          77
           3          70          78          77
           3          70          71          78
           3          71          79          78
           3          72          73          80
           3          73          81          80
           3          73          74          81
           3          74          82          81
           3          74          75          82
           3          75          83          82
           3          75          76          83
           3          76          84          83
           3          76          77          84
           3          77          85          84
           3          77          78          85
           3          78          86          85
           3          78          79          86
           3          79          87          86
CELL_TYPES          140
5
5
5
5
5
5
5
5
5
5
5
5
5
5
5
5
5
5
5
5
5
5
5
5
5
5
5
5
5
5
5
5
5
5
5
5
5
5
5
5
5
5
5
5
5
5
5
5
5
5
5
5
5
5
5
5
5
5
5
5
5
5
5
5
5
5
5
5
5
5
5
5
5
5
5
5
5
5
5
5
5
5
5
5
5
5
5
5
5
5
5
5
5
5
5
5
5
5
5
5
5
5
5
5
5
5
5
5
5
5
5
5
5
5
5
5
5
5
5
5
5
5
5
5
5
5
5
5
5
5
5
5
5
5
5
5
5
5
5
5
POINT_DATA           88
 SCALARS measuredDisp11 float  1                   
LOOKUP_TABLE default
 1.60000E-04
 2.36000E-04
 3.78000E-04
 5.10000E-04
 5.99000E-04
 7.16000E-04
 8.28000E-04
 9.85000E-04
 1.80000E-04
 2.39000E-04
 4.14000E-04
 4.16000E-04
 5.88000E-04
 7.34000E-04
 8.06000E-04
 9.81000E-04
 1.76000E-04
 3.33000E-04
 3.51000E-04
 3.74000E-04
 5.56000E-04
 6.67000E-04
 7.67000E-04
 8.85000E-04
 2.18000E-04
 3.55000E-04
 4.39000E-04
 5.02000E-04
 5.04000E-04
 5.75000E-04
 6.77000E-04
 7.85000E-04
 2.65000E-04
 4.09000E-04
 5.20000E-04
 5.11000E-04
 5.49000E-04
 5.82000E-04
 5.87000E-04
 8.10000E-04
 2.37000E-04
 3.57000E-04
 5.39000E-04
 4.27000E-04
 5.30000E-04
 6.13000E-04
 6.18000E-04
 6.40000E-04
 2.28000E-04
 3.42000E-04
 5.19000E-04
 4.62000E-04
 5.10000E-04
 6.02000E-04
 5.97000E-04
 8.01000E-04
 1.86000E-04
 3.10000E-04
 4.09000E-04
 5.36000E-04
 5.25000E-04
 5.93000E-04
 6.97000E-04
 7.79000E-04
 1.95000E-04
 2.72000E-04
 3.78000E-04
 4.81000E-04
 5.57000E-04
 6.59000E-04
 8.34000E-04
 8.67000E-04
 1.60000E-04
 2.57000E-04
 4.53000E-04
 4.60000E-04
 5.96000E-04
 7.29000E-04
 8.04000E-04
 9.40000E-04
 1.89000E-04
 2.52000E-04
 3.96000E-04
 4.41000E-04
 5.92000E-04
 7.39000E-04
 9.06000E-04
 9.78000E-04
 SCALARS measuredDisp12 float  1                   
LOOKUP_TABLE default
 1.52300E-03
 1.49400E-03
 1.47800E-03
 1.37500E-03
 1.37100E-03
 1.43200E-03
 1.39700E-03
 1.51600E-03
 1.38600E-03
 1.43000E-03
 1.32100E-03
 1.30900E-03
 1.23200E-03
 1.34200E-03
 1.36900E-03
 1.42900E-03
 1.33200E-03
 1.28300E-03
 1.24700E-03
 1.17400E-03
 1.18700E-03
 1.18400E-03
 1.29500E-03
 1.29500E-03
 1.24200E-03
 1.18800E-03
 1.17600E-03
 1.10000E-03
 1.03800E-03
 1.10900E-03
 1.10200E-03
 1.21700E-03
 1.17100E-03
 1.07600E-03
 1.04500E-03
 1.00900E-03
 1.10900E-03
 1.02900E-03
 1.06300E-03
 1.06500E-03
 1.01900E-03
 1.01900E-03
 1.02100E-03
 9.31000E-04
 1.04200E-03
 1.03900E-03
 9.84000E-04
 9.95000E-04
 8.93000E-04
 9.46000E-04
 9.82000E-04
 9.78000E-04
 9.54000E-04
 9.32000E-04
 9.23000E-04
 9.56000E-04
 7.84000E-04
 7.58000E-04
 8.28000E-04
 9.00000E-04
 8.74000E-04
 9.25000E-04
 9.24000E-04
 8.07000E-04
 6.60000E-04
 7.70000E-04
 8.23000E-04
 8.59000E-04
 8.85000E-04
 8.07000E-04
 7.87000E-04
 7.12000E-04
 6.24000E-04
 5.67000E-04
 6.54000E-04
 7.09000E-04
 7.34000E-04
 7.27000E-04
 6.30000E-04
 5.98000E-04
 5.12000E-04
 4.59000E-04
 5.47000E-04
 5.89000E-04
 5.95000E-04
 6.48000E-04
 5.20000E-04
 5.02000E-04
 SCALARS measuredDisp13 float  1                   
LOOKUP_TABLE default
 4.29600E-03
 4.18100E-03
 3.88600E-03
 3.35800E-03
 2.89100E-03
 2.65600E-03
 2.88000E-03
 3.45500E-03
 3.90000E-03
 4.22100E-03
 4.36400E-03
 4.57000E-03
 4.40600E-03
 4.19500E-03
 3.50900E-03
 2.40800E-03
 1.94000E-03
 2.46100E-03
 3.62000E-03
 4.16300E-03
 4.47600E-03
 4.46600E-03
 4.78600E-03
 4.80500E-03
 4.93700E-03
 4.25500E-03
 2.31600E-03
 1.88700E-03
 2.38500E-03
 4.28500E-03
 4.91200E-03
 4.83700E-03
 4.72200E-03
 4.96400E-03
 5.38100E-03
 6.06900E-03
 6.07100E-03
 4.27400E-03
 4.92200E-03
 4.25300E-03
 6.04200E-03
 5.92800E-03
 5.38200E-03
 4.95300E-03
 5.07000E-03
 5.52600E-03
 6.50000E-03
 6.48300E-03
 4.17200E-03
 4.60700E-03
 4.15100E-03
 6.49300E-03
 6.53600E-03
 5.54200E-03
 4.97000E-03
 4.91300E-03
 5.20500E-03
 5.77700E-03
 5.89600E-03
 4.72800E-03
 5.21500E-03
 4.68700E-03
 5.95300E-03
 5.91800E-03
 5.28800E-03
 4.83100E-03
 4.44600E-03
 4.59100E-03
 4.75900E-03
 4.39000E-03
 3.38200E-03
 3.30100E-03
 3.37800E-03
 4.42100E-03
 4.84600E-03
 4.59600E-03
 4.50300E-03
 4.02500E-03
 4.02900E-03
 4.05400E-03
 3.98400E-03
 3.87100E-03
 3.62800E-03
 3.77000E-03
 3.99600E-03
 4.05500E-03
 4.02200E-03
 4.00000E-03
 SCALARS predictedDisp11 float  1                  
LOOKUP_TABLE default
 2.03047E-04
 2.93971E-04
 3.78000E-04
 4.89014E-04
 6.19686E-04
 7.22670E-04
 8.42358E-04
 9.50311E-04
 2.18566E-04
 3.13666E-04
 4.13563E-04
 5.11380E-04
 6.09320E-04
 7.06574E-04
 7.98866E-04
 8.83022E-04
 2.29214E-04
 3.31128E-04
 4.30236E-04
 5.21427E-04
 6.07382E-04
 6.91773E-04
 7.74420E-04
 8.59984E-04
 2.56877E-04
 3.54068E-04
 4.47624E-04
 5.31723E-04
 6.08396E-04
 6.83281E-04
 7.59706E-04
 8.36499E-04
 2.87977E-04
 3.80330E-04
 4.65174E-04
 5.40813E-04
 6.11371E-04
 6.81401E-04
 7.55072E-04
 8.34704E-04
 3.09311E-04
 3.93389E-04
 4.73183E-04
 5.46141E-04
 6.15245E-04
 6.86063E-04
 7.63718E-04
 8.51920E-04
 2.94994E-04
 3.85193E-04
 4.68827E-04
 5.44430E-04
 6.16126E-04
 6.88849E-04
 7.64980E-04
 8.44980E-04
 2.68253E-04
 3.63800E-04
 4.54829E-04
 5.37531E-04
 6.15375E-04
 6.91217E-04
 7.69730E-04
 8.56694E-04
 2.25866E-04
 3.31797E-04
 4.35359E-04
 5.29192E-04
 6.16317E-04
 7.01539E-04
 7.88767E-04
 8.83384E-04
 1.96263E-04
 3.11132E-04
 4.18172E-04
 5.19238E-04
 6.16668E-04
 7.15144E-04
 8.11176E-04
 9.09548E-04
 2.12697E-04
 3.02500E-04
 3.84896E-04
 4.98643E-04
 6.08412E-04
 7.33526E-04
 8.57009E-04
 9.42414E-04
 SCALARS predictedDisp12 float  1                  
LOOKUP_TABLE default
 1.52300E-03
 1.49400E-03
 1.47800E-03
 1.37500E-03
 1.37100E-03
 1.43200E-03
 1.39700E-03
 1.51600E-03
 1.38600E-03
 1.38471E-03
 1.35668E-03
 1.30773E-03
 1.29825E-03
 1.32051E-03
 1.34065E-03
 1.42900E-03
 1.33200E-03
 1.28834E-03
 1.25313E-03
 1.22203E-03
 1.21287E-03
 1.22525E-03
 1.25054E-03
 1.29500E-03
 1.24200E-03
 1.19292E-03
 1.15934E-03
 1.13842E-03
 1.13353E-03
 1.14312E-03
 1.16556E-03
 1.21700E-03
 1.17100E-03
 1.10539E-03
 1.07814E-03
 1.06652E-03
 1.06461E-03
 1.06958E-03
 1.07625E-03
 1.06500E-03
 1.01900E-03
 1.00853E-03
 1.00113E-03
 9.98241E-04
 9.99128E-04
 1.00142E-03
 1.00241E-03
 9.95000E-04
 8.93000E-04
 9.13306E-04
 9.22786E-04
 9.28865E-04
 9.32029E-04
 9.31539E-04
 9.31598E-04
 9.56000E-04
 7.84000E-04
 8.17651E-04
 8.40404E-04
 8.54890E-04
 8.60618E-04
 8.57240E-04
 8.40566E-04
 8.07000E-04
 6.60000E-04
 7.11568E-04
 7.45561E-04
 7.69338E-04
 7.79586E-04
 7.75879E-04
 7.46133E-04
 7.12000E-04
 6.24000E-04
 6.03663E-04
 6.43089E-04
 6.75986E-04
 6.89794E-04
 6.95632E-04
 6.41246E-04
 5.98000E-04
 5.12000E-04
 4.59000E-04
 5.47000E-04
 5.89000E-04
 5.95000E-04
 6.48000E-04
 5.20000E-04
 5.02000E-04
 SCALARS predictedDisp13 float  1                  
LOOKUP_TABLE default
 4.17389E-03
 4.06877E-03
 3.74798E-03
 3.19967E-03
 3.00298E-03
 3.14573E-03
 3.10303E-03
 3.15942E-03
 3.96426E-03
 3.88739E-03
 3.67110E-03
 3.30162E-03
 3.22788E-03
 3.31576E-03
 3.37205E-03
 3.54192E-03
 3.77339E-03
 3.80597E-03
 3.71776E-03
 3.54337E-03
 3.50799E-03
 3.60746E-03
 3.75844E-03
 3.87762E-03
 3.91624E-03
 3.91762E-03
 3.83827E-03
 3.71966E-03
 3.69152E-03
 3.78524E-03
 3.95303E-03
 4.12692E-03
 4.35202E-03
 4.27432E-03
 4.04638E-03
 3.86701E-03
 3.80023E-03
 3.86001E-03
 4.01715E-03
 4.08280E-03
 4.73931E-03
 4.51673E-03
 4.20398E-03
 3.97042E-03
 3.84663E-03
 3.81799E-03
 3.82061E-03
 3.78161E-03
 4.68402E-03
 4.49943E-03
 4.22837E-03
 4.00566E-03
 3.87854E-03
 3.85430E-03
 3.90069E-03
 4.00631E-03
 4.49063E-03
 4.37796E-03
 4.17521E-03
 3.98342E-03
 3.87578E-03
 3.90048E-03
 4.07390E-03
 4.17432E-03
 4.18258E-03
 4.17593E-03
 4.07961E-03
 3.88728E-03
 3.75693E-03
 3.74959E-03
 3.93425E-03
 4.04400E-03
 4.18112E-03
 4.28948E-03
 4.06828E-03
 3.73481E-03
 3.53132E-03
 3.46537E-03
 3.77883E-03
 3.95360E-03
 4.49058E-03
 4.45101E-03
 4.02266E-03
 3.62038E-03
 3.33318E-03
 3.28623E-03
 3.73432E-03
 3.88019E-03
 SCALARS dual11 float  1                           
LOOKUP_TABLE default
-5.39982E-09
-1.34974E-09
 0.00000E+00
 7.38480E-09
 1.92732E-08
 3.18283E-08
 3.79331E-08
 4.35254E-08
 3.79105E-10
 2.78751E-09
 5.65291E-09
 1.08051E-08
 2.02405E-08
 2.64693E-08
 2.99978E-08
 3.59367E-08
 1.81784E-08
 1.89193E-08
 1.79361E-08
 1.75141E-08
 1.66925E-08
 1.46645E-08
 1.21919E-08
 1.41213E-08
 4.36160E-08
 3.88509E-08
 3.29699E-08
 2.49849E-08
 1.39115E-08
-6.36007E-11
-9.19686E-09
-1.75076E-08
 6.48811E-08
 5.52050E-08
 4.49325E-08
 3.01904E-08
 9.52524E-09
-9.98201E-09
-2.64230E-08
-4.17307E-08
 7.23086E-08
 5.94631E-08
 4.71169E-08
 2.96009E-08
 7.68198E-09
-1.21524E-08
-2.92571E-08
-4.76903E-08
 5.77321E-08
 4.76157E-08
 3.86217E-08
 2.46136E-08
 9.83798E-09
-3.47251E-09
-1.62704E-08
-3.12247E-08
 2.44599E-08
 2.25324E-08
 1.95221E-08
 1.59005E-08
 1.39330E-08
 1.21290E-08
 1.14485E-08
 9.83650E-09
-1.79022E-08
-1.29104E-08
-5.91792E-09
 5.19774E-09
 1.91251E-08
 3.49369E-08
 4.94965E-08
 6.16789E-08
-5.98447E-08
-4.35764E-08
-2.69658E-08
-2.60920E-09
 2.72743E-08
 5.64859E-08
 8.07159E-08
 1.00757E-07
-7.76967E-08
-5.73638E-08
-3.49971E-08
-3.50229E-09
 3.30154E-08
 6.63370E-08
 9.10838E-08
 1.11930E-07
 SCALARS dual12 float  1                           
LOOKUP_TABLE default
 0.00000E+00
 0.00000E+00
 0.00000E+00
 0.00000E+00
 0.00000E+00
 0.00000E+00
 0.00000E+00
 0.00000E+00
 0.00000E+00
 5.26604E-09
-2.02633E-08
-3.49975E-08
-4.70946E-08
-1.74242E-08
 4.64198E-09
 0.00000E+00
 0.00000E+00
-5.49359E-09
-2.70397E-08
-5.83713E-08
-6.54226E-08
-4.08072E-08
-5.22550E-09
 0.00000E+00
 0.00000E+00
-6.97294E-09
-2.22549E-08
-5.43916E-08
-6.14103E-08
-4.02935E-08
-2.53304E-08
 0.00000E+00
 0.00000E+00
-4.76957E-09
-1.21286E-08
-2.62327E-08
-5.77547E-09
-7.21468E-09
-7.68038E-09
 0.00000E+00
 0.00000E+00
 1.55844E-08
 2.54518E-08
 2.39363E-08
 4.83012E-08
 4.04031E-08
 1.55313E-08
 0.00000E+00
 0.00000E+00
 3.17394E-08
 6.24545E-08
 8.31809E-08
 9.06829E-08
 7.36807E-08
 4.23487E-08
 0.00000E+00
 0.00000E+00
 2.51165E-08
 7.66122E-08
 1.18370E-07
 1.25582E-07
 1.14757E-07
 7.61586E-08
 0.00000E+00
 0.00000E+00
 4.16940E-08
 9.55142E-08
 1.36575E-07
 1.45964E-07
 1.14729E-07
 6.66932E-08
 0.00000E+00
 0.00000E+00
 1.67276E-08
 5.40053E-08
 8.37395E-08
 8.91535E-08
 6.73167E-08
 3.09410E-08
 0.00000E+00
 0.00000E+00
 0.00000E+00
 0.00000E+00
 0.00000E+00
 0.00000E+00
 0.00000E+00
 0.00000E+00
 0.00000E+00
 SCALARS dual13 float  1                           
LOOKUP_TABLE default
-2.19081E-07
-2.87302E-07
-5.21052E-07
-7.49982E-07
-8.27462E-07
-6.53838E-07
-3.89615E-07
-2.73228E-07
-1.78865E-07
-2.66100E-07
-4.43592E-07
-6.05558E-07
-6.34264E-07
-5.08885E-07
-3.39262E-07
-2.65705E-07
-6.05393E-08
-9.06406E-08
-1.21348E-07
-1.59415E-07
-1.65562E-07
-1.67329E-07
-1.52384E-07
-1.37948E-07
 1.68117E-07
 2.09185E-07
 3.37972E-07
 4.73634E-07
 5.53358E-07
 4.45598E-07
 2.76506E-07
 2.05822E-07
 4.00231E-07
 5.37063E-07
 8.51385E-07
 1.16005E-06
 1.25949E-06
 1.05468E-06
 7.27614E-07
 5.35424E-07
 5.34279E-07
 7.23247E-07
 1.11666E-06
 1.45479E-06
 1.50026E-06
 1.26397E-06
 9.04846E-07
 6.92980E-07
 4.11555E-07
 5.62820E-07
 9.02291E-07
 1.19650E-06
 1.22989E-06
 1.07949E-06
 8.07637E-07
 6.30521E-07
 1.22424E-07
 2.20567E-07
 3.99300E-07
 5.39651E-07
 5.62421E-07
 4.63986E-07
 2.98649E-07
 2.25576E-07
-1.96032E-07
-2.43998E-07
-3.67298E-07
-4.63152E-07
-5.06597E-07
-4.88451E-07
-3.93135E-07
-2.86217E-07
-5.69221E-07
-7.36991E-07
-1.09112E-06
-1.37106E-06
-1.42177E-06
-1.21752E-06
-8.65944E-07
-6.36828E-07
-6.87148E-07
-9.38025E-07
-1.40451E-06
-1.73895E-06
-1.74733E-06
-1.42670E-06
-9.66192E-07
-7.31524E-07
 SCALARS NLP float  1                              
LOOKUP_TABLE default
 0.00000E+00
 0.00000E+00
 0.00000E+00
 0.00000E+00
 0.00000E+00
 0.00000E+00
 0.00000E+00
 0.00000E+00
 0.00000E+00
 0.00000E+00
 0.00000E+00
 0.00000E+00
 0.00000E+00
 0.00000E+00
 0.00000E+00
 0.00000E+00
 0.00000E+00
 0.00000E+00
 0.00000E+00
 0.00000E+00
 0.00000E+00
 0.00000E+00
 0.00000E+00
 0.00000E+00
 0.00000E+00
 0.00000E+00
 0.00000E+00
 0.00000E+00
 0.00000E+00
 0.00000E+00
 0.00000E+00
 0.00000E+00
 0.00000E+00
 0.00000E+00
 0.00000E+00
 0.00000E+00
 0.00000E+00
 0.00000E+00
 0.00000E+00
 0.00000E+00
 0.00000E+00
 0.00000E+00
 0.00000E+00
 0.00000E+00
 0.00000E+00
 0.00000E+00
 0.00000E+00
 0.00000E+00
 0.00000E+00
 0.00000E+00
 0.00000E+00
 0.00000E+00
 0.00000E+00
 0.00000E+00
 0.00000E+00
 0.00000E+00
 0.00000E+00
 0.00000E+00
 0.00000E+00
 0.00000E+00
 0.00000E+00
 0.00000E+00
 0.00000E+00
 0.00000E+00
 0.00000E+00
 0.00000E+00
 0.00000E+00
 0.00000E+00
 0.00000E+00
 0.00000E+00
 0.00000E+00
 0.00000E+00
 0.00000E+00
 0.00000E+00
 0.00000E+00
 0.00000E+00
 0.00000E+00
 0.00000E+00
 0.00000E+00
 0.00000E+00
 0.00000E+00
 0.00000E+00
 0.00000E+00
 0.00000E+00
 0.00000E+00
 0.00000E+00
 0.00000E+00
 0.00000E+00
 SCALARS SM float  1                               
LOOKUP_TABLE default
 1.03107E+00
 1.01385E+00
 1.00000E+00
 1.00000E+00
 1.00000E+00
 1.00000E+00
 1.00000E+00
 1.00677E+00
 1.01861E+00
 1.01126E+00
 1.00000E+00
 1.00000E+00
 1.00000E+00
 1.00000E+00
 1.00696E+00
 1.01366E+00
 1.03581E+00
 1.01834E+00
 1.00982E+00
 1.00000E+00
 1.00000E+00
 1.00667E+00
 1.01466E+00
 1.02829E+00
 1.07970E+00
 1.09421E+00
 1.11482E+00
 1.15484E+00
 1.19642E+00
 1.17511E+00
 1.12860E+00
 1.11136E+00
 1.12604E+00
 1.16540E+00
 1.23390E+00
 1.30352E+00
 1.29368E+00
 1.27088E+00
 1.21656E+00
 1.16569E+00
 1.15496E+00
 1.19444E+00
 1.27477E+00
 1.29817E+00
 1.35360E+00
 1.28955E+00
 1.23361E+00
 1.17948E+00
 1.13910E+00
 1.17667E+00
 1.23875E+00
 1.29868E+00
 1.25009E+00
 1.26777E+00
 1.22066E+00
 1.14517E+00
 1.09349E+00
 1.10935E+00
 1.16515E+00
 1.19096E+00
 1.18801E+00
 1.15524E+00
 1.09157E+00
 1.05009E+00
 1.03504E+00
 1.00303E+00
 1.00000E+00
 1.00000E+00
 1.00000E+00
 1.00000E+00
 1.00000E+00
 1.00000E+00
 1.00000E+00
 1.00000E+00
 1.00000E+00
 1.00000E+00
 1.00000E+00
 1.00000E+00
 1.00000E+00
 1.00000E+00
 1.00000E+00
 1.00000E+00
 1.00000E+00
 1.00000E+00
 1.00000E+00
 1.00000E+00
 1.00000E+00
 1.00000E+00
 SCALARS gradient1 float  1                        
LOOKUP_TABLE default
 0.00000E+00
 0.00000E+00
 0.00000E+00
 0.00000E+00
 0.00000E+00
 0.00000E+00
 0.00000E+00
 0.00000E+00
 0.00000E+00
 0.00000E+00
 0.00000E+00
 0.00000E+00
 0.00000E+00
 0.00000E+00
 0.00000E+00
 0.00000E+00
 0.00000E+00
 0.00000E+00
 0.00000E+00
 0.00000E+00
 0.00000E+00
 0.00000E+00
 0.00000E+00
 0.00000E+00
 0.00000E+00
 0.00000E+00
 0.00000E+00
 0.00000E+00
 0.00000E+00
 0.00000E+00
 0.00000E+00
 0.00000E+00
 0.00000E+00
 0.00000E+00
 0.00000E+00
 0.00000E+00
 0.00000E+00
 0.00000E+00
 0.00000E+00
 0.00000E+00
 0.00000E+00
 0.00000E+00
 0.00000E+00
 0.00000E+00
 0.00000E+00
 0.00000E+00
 0.00000E+00
 0.00000E+00
 0.00000E+00
 0.00000E+00
 0.00000E+00
 0.00000E+00
 0.00000E+00
 0.00000E+00
 0.00000E+00
 0.00000E+00
 0.00000E+00
 0.00000E+00
 0.00000E+00
 0.00000E+00
 0.00000E+00
 0.00000E+00
 0.00000E+00
 0.00000E+00
 0.00000E+00
 0.00000E+00
 0.00000E+00
 0.00000E+00
 0.00000E+00
 0.00000E+00
 0.00000E+00
 0.00000E+00
 0.00000E+00
 0.00000E+00
 0.00000E+00
 0.00000E+00
 0.00000E+00
 0.00000E+00
 0.00000E+00
 0.00000E+00
 0.00000E+00
 0.00000E+00
 0.00000E+00
 0.00000E+00
 0.00000E+00
 0.00000E+00
 0.00000E+00
 0.00000E+00
 SCALARS gradient2 float  1                        
LOOKUP_TABLE default
 1.87617E-12
 7.53844E-13
 4.11627E-13
 3.50290E-12
 4.70668E-12
 3.45434E-12
-1.83763E-12
 4.14646E-14
-4.99014E-14
 3.52649E-13
-5.71672E-13
 6.15213E-12
 6.26857E-12
 3.62461E-13
 1.23995E-12
 1.96692E-12
 2.01212E-12
-1.20213E-12
 9.50241E-13
-2.35674E-12
-2.33030E-12
 1.98299E-13
 4.65807E-13
 9.23659E-13
-1.07357E-12
-1.29198E-12
-2.12049E-12
-3.26120E-12
-4.38829E-12
-3.39693E-12
-2.51982E-12
-1.60395E-12
-2.24017E-12
-2.74152E-12
-4.44524E-12
-2.32868E-12
-9.78387E-12
-5.27726E-12
-3.86738E-12
-3.41866E-12
-2.76741E-12
-3.30717E-12
-4.19991E-12
-1.09313E-11
-1.28288E-12
-5.20981E-12
-4.49448E-12
-3.71292E-12
-2.93675E-12
-1.67024E-12
-5.31230E-12
-2.34970E-12
-9.03125E-12
-3.12816E-12
-4.61698E-12
-2.88037E-12
-6.38363E-13
-2.10991E-12
-2.50785E-12
-3.81492E-12
-3.99943E-12
-3.11439E-12
-1.14662E-12
-1.42366E-13
 5.55159E-13
 1.04293E-12
 3.89670E-13
 2.74221E-12
 3.73058E-12
 4.55993E-12
 4.28367E-12
 1.40102E-12
 1.50768E-12
 6.50775E-12
 1.24345E-11
 1.67373E-11
 1.83127E-11
 1.46626E-11
 1.03158E-11
 3.11955E-12
 2.22964E-12
 5.22669E-12
 8.35989E-12
 1.13509E-11
 1.08580E-11
 7.07203E-12
 4.52346E-12
 6.27734E-13
CELL_DATA         140
SCALARS elemDataMatch  float  1
LOOKUP_TABLE default
 0.00000E+00
 2.13699E-13
 2.13699E-13
 1.77981E-13
 1.32646E-13
 1.28089E-13
 1.68324E-16
 4.48623E-13
 4.57228E-13
 3.57023E-13
 4.81106E-14
 1.95325E-13
 8.37411E-14
 8.37411E-14
 2.13699E-13
 1.91458E-13
 1.75607E-13
 1.85627E-13
 1.54000E-13
 2.67859E-13
 1.01396E-12
 1.40665E-12
 5.47398E-13
 2.55964E-13
 1.58382E-13
 2.85310E-13
 4.20927E-13
 2.05882E-13
 2.97546E-15
 8.23829E-15
 1.87184E-14
 1.93110E-14
 2.09787E-13
 4.65145E-13
 8.88979E-13
 1.91761E-12
 1.97674E-12
 2.14567E-12
 3.01906E-13
 5.21521E-13
 3.32388E-13
 4.20868E-13
 2.52295E-15
 1.07553E-13
 7.69243E-14
 2.26207E-13
 3.05533E-13
 1.17429E-12
 2.63419E-12
 1.36536E-12
 1.01720E-12
 2.96823E-13
 1.35237E-12
 1.02308E-12
 5.26891E-13
 1.82890E-14
 8.99648E-14
 6.93289E-14
 2.49011E-13
 8.38828E-14
 5.11106E-13
 1.00145E-12
 8.46934E-13
 4.54709E-13
 3.97606E-13
 3.37858E-13
 1.82205E-13
 1.02184E-13
 7.90193E-14
 3.53158E-14
 1.14269E-14
 1.58438E-13
 2.88929E-13
 9.09632E-13
 4.45988E-13
 6.31871E-13
 4.88907E-13
 9.23231E-13
 7.40816E-13
 2.86293E-13
 1.11295E-13
 5.82311E-14
 5.95064E-14
 7.70011E-15
 1.11342E-13
 2.78846E-13
 4.77813E-13
 3.84551E-13
 7.95832E-13
 5.88597E-13
 9.60328E-13
 4.77665E-13
 1.01286E-13
 5.95304E-13
 4.28152E-13
 1.66460E-12
 6.58103E-13
 7.25126E-13
 3.70652E-13
 3.63229E-13
 3.80833E-13
 1.29213E-12
 1.05820E-12
 3.18253E-12
 1.67724E-12
 3.27006E-12
 2.63989E-12
 3.04211E-12
 2.38332E-12
 1.75810E-12
 1.25426E-12
 1.73966E-13
 3.55652E-13
 2.72515E-13
 1.07278E-12
 5.27689E-13
 2.38767E-12
 1.41113E-12
 3.76388E-12
 2.47457E-12
 2.43241E-12
 7.96377E-13
 7.45040E-13
 3.38543E-13
 1.39266E-13
 1.31748E-14
 1.40015E-13
 1.40015E-13
 1.10746E-13
 1.24018E-14
 1.63461E-13
 1.13535E-13
 4.69122E-13
 2.03563E-13
 4.50499E-13
 1.02494E-13
 7.89215E-14
 1.31748E-14
 1.31748E-14
 0.00000E+00
SCALARS elemRegul  float  1
LOOKUP_TABLE default
 2.65706E-14
 9.75339E-15
 1.76216E-14
 1.40785E-14
 3.12500E-16
 3.12500E-16
 3.12500E-16
 3.12500E-16
 3.12500E-16
 3.12500E-16
 3.12500E-16
 1.23020E-14
 1.21357E-14
 1.20310E-14
 2.33783E-14
 2.35664E-14
 1.66260E-14
 1.62506E-14
 1.22809E-14
 1.22809E-14
 3.12500E-16
 3.12500E-16
 3.12500E-16
 1.17967E-14
 1.20520E-14
 1.38837E-14
 1.27761E-14
 2.49955E-14
 5.90505E-14
 9.65565E-14
 9.54335E-14
 1.33747E-13
 1.31815E-13
 1.99918E-13
 1.93556E-13
 2.50967E-13
 2.45668E-13
 2.12227E-13
 2.10786E-13
 1.53831E-13
 1.43439E-13
 1.06043E-13
 6.07020E-14
 1.01693E-13
 9.26514E-14
 1.71718E-13
 1.57037E-13
 2.05210E-13
 1.92973E-13
 1.22196E-13
 1.24460E-13
 1.23055E-13
 1.33077E-13
 1.29221E-13
 1.12041E-13
 9.30389E-14
 6.10552E-14
 6.12597E-14
 9.29928E-14
 1.12659E-13
 1.00915E-13
 3.00097E-14
 1.39998E-14
 1.02039E-13
 8.01449E-14
 8.34044E-14
 7.17935E-14
 7.30976E-14
 6.70674E-14
 6.98260E-14
 5.31823E-14
 5.19495E-14
 1.02837E-13
 8.97148E-14
 5.36890E-14
 7.49137E-14
 6.92958E-14
 1.42935E-13
 1.52162E-13
 3.50622E-14
 7.50356E-14
 6.10681E-14
 6.95741E-14
 1.03657E-13
 7.38654E-14
 8.64579E-14
 1.14473E-13
 1.15456E-13
 1.18643E-13
 1.38460E-13
 1.47712E-13
 7.76862E-14
 8.06823E-14