# vtk DataFile Version 2.0
Output of NLACE
ASCII
DATASET UNSTRUCTURED_GRID
POINTS           48 FLOAT
 0.000000E+00  0.000000E+00  6.000000E+00
 1.951800E+00  0.000000E+00  6.000000E+00
 3.903600E+00  0.000000E+00  6.000000E+00
 5.855400E+00  0.000000E+00  6.000000E+00
 0.000000E+00  2.100000E+00  6.000000E+00
 1.951800E+00  2.100000E+00  6.000000E+00
 3.903600E+00  2.100000E+00  6.000000E+00
 5.855400E+00  2.100000E+00  6.000000E+00
 0.000000E+00  4.200000E+00  6.000000E+00
 1.951800E+00  4.200000E+00  6.000000E+00
 3.903600E+00  4.200000E+00  6.000000E+00
 5.855400E+00  4.200000E+00  6.000000E+00
 0.000000E+00  0.000000E+00  4.048200E+00
 1.951800E+00  0.000000E+00  4.048200E+00
 3.903600E+00  0.000000E+00  4.048200E+00
 5.855400E+00  0.000000E+00  4.048200E+00
 0.000000E+00  2.100000E+00  4.048200E+00
 1.951800E+00  2.100000E+00  4.048200E+00
 3.903600E+00  2.100000E+00  4.048200E+00
 5.855400E+00  2.100000E+00  4.048200E+00
 0.000000E+00  4.200000E+00  4.048200E+00
 1.951800E+00  4.200000E+00  4.048200E+00
 3.903600E+00  4.200000E+00  4.048200E+00
 5.855400E+00  4.200000E+00  4.048200E+00
 0.000000E+00  0.000000E+00  2.096400E+00
 1.951800E+00  0.000000E+00  2.096400E+00
 3.903600E+00  0.000000E+00  2.096400E+00
 5.855400E+00  0.000000E+00  2.096400E+00
 0.000000E+00  2.100000E+00  2.096400E+00
 1.951800E+00  2.100000E+00  2.096400E+00
 3.903600E+00  2.100000E+00  2.096400E+00
 5.855400E+00  2.100000E+00  2.096400E+00
 0.000000E+00  4.200000E+00  2.096400E+00
 1.951800E+00  4.200000E+00  2.096400E+00
 3.903600E+00  4.200000E+00  2.096400E+00
 5.855400E+00  4.200000E+00  2.096400E+00
-0.000000E+00  0.000000E+00  1.446000E-01
 1.951800E+00  0.000000E+00  1.446000E-01
 3.903600E+00  0.000000E+00  1.446000E-01
 5.855400E+00  0.000000E+00  1.446000E-01
 0.000000E+00  2.100000E+00  1.446000E-01
 1.951800E+00  2.100000E+00  1.446000E-01
 3.903600E+00  2.100000E+00  1.446000E-01
 5.855400E+00  2.100000E+00  1.446000E-01
 0.000000E+00  4.200000E+00  1.446000E-01
 1.951800E+00  4.200000E+00  1.446000E-01
 3.903600E+00  4.200000E+00  1.446000E-01
 5.855400E+00  4.200000E+00  1.446000E-01
CELLS           90         450
4    0   12   16   13
4    5   16   17   13
4    5   16   13    0
4    5    0    4   16
4    1    0    5   13
4    5   13   17   18
4    2   13   18   14
4    2   13    5   18
4    1   13    5    2
4    6    5   18    2
4    2   14   18   15
4    7   18   19   15
4    7   18   15    2
4    7    2    6   18
4    3    2    7   15
4    8   16   20   21
4    5   16   21   17
4    5   16    8   21
4    4   16    8    5
4    9    8   21    5
4    5   17   21   18
4   10   21   22   18
4   10   21   18    5
4   10    5    9   21
4    6    5   10   18
4   10   18   22   23
4    7   18   23   19
4    7   18   10   23
4    6   18   10    7
4   11   10   23    7
4   12   24   28   25
4   17   28   29   25
4   17   28   25   12
4   17   12   16   28
4   13   12   17   25
4   17   25   29   30
4   14   25   30   26
4   14   25   17   30
4   13   25   17   14
4   18   17   30   14
4   14   26   30   27
4   19   30   31   27
4   19   30   27   14
4   19   14   18   30
4   15   14   19   27
4   20   28   32   33
4   17   28   33   29
4   17   28   20   33
4   16   28   20   17
4   21   20   33   17
4   17   29   33   30
4   22   33   34   30
4   22   33   30   17
4   22   17   21   33
4   18   17   22   30
4   22   30   34   35
4   19   30   35   31
4   19   30   22   35
4   18   30   22   19
4   23   22   35   19
4   24   36   40   37
4   29   40   41   37
4   29   40   37   24
4   29   24   28   40
4   25   24   29   37
4   29   37   41   42
4   26   37   42   38
4   26   37   29   42
4   25   37   29   26
4   30   29   42   26
4   26   38   42   39
4   31   42   43   39
4   31   42   39   26
4   31   26   30   42
4   27   26   31   39
4   32   40   44   45
4   29   40   45   41
4   29   40   32   45
4   28   40   32   29
4   33   32   45   29
4   29   41   45   42
4   34   45   46   42
4   34   45   42   29
4   34   29   33   45
4   30   29   34   42
4   34   42   46   47
4   31   42   47   43
4   31   42   34   47
4   30   42   34   31
4   35   34   47   31
CELL_TYPES           90
10
10
10
10
10
10
10
10
10
10
10
10
10
10
10
10
10
10
10
10
10
10
10
10
10
10
10
10
10
10
10
10
10
10
10
10
10
10
10
10
10
10
10
10
10
10
10
10
10
10
10
10
10
10
10
10
10
10
10
10
10
10
10
10
10
10
10
10
10
10
10
10
10
10
10
10
10
10
10
10
10
10
10
10
10
10
10
10
10
10
POINT_DATA           48
 SCALARS predictedDisp11 float  1                  
LOOKUP_TABLE default
 0.00000E+00
-3.72631E-02
-8.67915E-02
-1.35247E-01
 0.00000E+00
-3.97863E-02
-8.79642E-02
-1.36137E-01
 0.00000E+00
-4.25635E-02
-8.88014E-02
-1.37259E-01
 0.00000E+00
-3.90995E-02
-8.86766E-02
-1.36607E-01
 0.00000E+00
-4.29788E-02
-8.90482E-02
-1.37862E-01
 0.00000E+00
-4.32631E-02
-9.03202E-02
-1.38256E-01
 0.00000E+00
-4.35017E-02
-9.12449E-02
-1.39186E-01
 0.00000E+00
-4.49868E-02
-9.12739E-02
-1.40062E-01
 0.00000E+00
-4.47886E-02
-9.20463E-02
-1.40196E-01
 2.37587E-03
-4.39441E-02
-9.13695E-02
-1.40123E-01
 0.00000E+00
-4.47254E-02
-9.17738E-02
-1.40538E-01
 0.00000E+00
-4.49451E-02
-9.21004E-02
-1.40876E-01
 SCALARS predictedDisp12 float  1                  
LOOKUP_TABLE default
 0.00000E+00
 0.00000E+00
 0.00000E+00
 0.00000E+00
 1.06469E-01
 1.04357E-01
 1.01231E-01
 1.00967E-01
 2.00000E-01
 2.00000E-01
 2.00000E-01
 2.00000E-01
 0.00000E+00
 0.00000E+00
 0.00000E+00
 0.00000E+00
 1.05184E-01
 1.01828E-01
 1.01036E-01
 1.00726E-01
 2.00000E-01
 2.00000E-01
 2.00000E-01
 2.00000E-01
 0.00000E+00
 0.00000E+00
 0.00000E+00
 0.00000E+00
 1.01679E-01
 1.00630E-01
 1.00539E-01
 1.00439E-01
 2.00000E-01
 2.00000E-01
 2.00000E-01
 2.00000E-01
 0.00000E+00
 0.00000E+00
 0.00000E+00
 0.00000E+00
 1.00856E-01
 1.00652E-01
 1.00481E-01
 1.00513E-01
 2.00000E-01
 2.00000E-01
 2.00000E-01
 2.00000E-01
 SCALARS predictedDisp13 float  1                  
LOOKUP_TABLE default
 0.00000E+00
 0.00000E+00
 0.00000E+00
 0.00000E+00
 0.00000E+00
 0.00000E+00
 0.00000E+00
 0.00000E+00
 0.00000E+00
 0.00000E+00
 0.00000E+00
 0.00000E+00
 3.88965E-02
 3.94186E-02
 4.39102E-02
 4.46144E-02
 3.91895E-02
 4.28560E-02
 4.49967E-02
 4.41023E-02
 4.24422E-02
 4.40688E-02
 4.46313E-02
 4.52830E-02
 8.73394E-02
 8.82986E-02
 9.10008E-02
 9.11871E-02
 8.78330E-02
 8.98291E-02
 9.16415E-02
 9.13250E-02
 8.93698E-02
 9.05380E-02
 9.16431E-02
 9.18895E-02
 1.35414E-01
 1.37289E-01
 1.39488E-01
 1.39839E-01
 1.36552E-01
 1.38150E-01
 1.39963E-01
 1.40141E-01
 1.37755E-01
 1.38779E-01
 1.40263E-01
 1.40572E-01
 SCALARS predictedDisp14 float  1                  
LOOKUP_TABLE default
 0.00000E+00
-4.18603E-02
-5.19607E-02
-5.30851E-02
-4.30116E-02
-4.97876E-02
-5.24926E-02
-5.34401E-02
-5.07849E-02
-5.16264E-02
-5.29758E-02
-5.33482E-02
-4.43419E-02
-4.86938E-02
-5.25740E-02
-5.33791E-02
-4.93193E-02
-5.18084E-02
-5.29988E-02
-5.33347E-02
-5.19826E-02
-5.25240E-02
-5.31519E-02
-5.34348E-02
-5.20360E-02
-5.23818E-02
-5.30841E-02
-5.32552E-02
-5.25770E-02
-5.31000E-02
-5.32096E-02
-5.31340E-02
-5.31995E-02
-5.32200E-02
-5.31738E-02
-5.32015E-02
-5.30451E-02
-5.33172E-02
-5.31758E-02
-5.31115E-02
-5.34952E-02
-5.33675E-02
-5.31946E-02
-5.30759E-02
-5.34778E-02
-5.34714E-02
-5.31670E-02
-5.29632E-02
 SCALARS NLP float  1                              
LOOKUP_TABLE default
 0.00000E+00
 0.00000E+00
 0.00000E+00
 0.00000E+00
 0.00000E+00
 0.00000E+00
 0.00000E+00
 0.00000E+00
 0.00000E+00
 0.00000E+00
 0.00000E+00
 0.00000E+00
 0.00000E+00
 0.00000E+00
 0.00000E+00
 0.00000E+00
 0.00000E+00
 0.00000E+00
 0.00000E+00
 0.00000E+00
 0.00000E+00
 0.00000E+00
 0.00000E+00
 0.00000E+00
 0.00000E+00
 0.00000E+00
 0.00000E+00
 0.00000E+00
 0.00000E+00
 0.00000E+00
 0.00000E+00
 0.00000E+00
 0.00000E+00
 0.00000E+00
 0.00000E+00
 0.00000E+00
 0.00000E+00
 0.00000E+00
 0.00000E+00
 0.00000E+00
 0.00000E+00
 0.00000E+00
 0.00000E+00
 0.00000E+00
 0.00000E+00
 0.00000E+00
 0.00000E+00
 0.00000E+00
 SCALARS SM float  1                               
LOOKUP_TABLE default
 1.05000E+00
 1.05000E+00
 1.05000E+00
 1.05000E+00
 1.05000E+00
 1.05000E+00
 1.05000E+00
 1.05000E+00
 1.05000E+00
 1.05000E+00
 1.05000E+00
 1.05000E+00
 1.05000E+00
 1.05000E+00
 1.05000E+00
 1.05000E+00
 1.05000E+00
 1.05000E+00
 1.05000E+00
 1.05000E+00
 1.05000E+00
 1.05000E+00
 1.05000E+00
 1.05000E+00
 1.05000E+00
 1.05000E+00
 1.05000E+00
 1.05000E+00
 1.05000E+00
 1.05000E+00
 1.05000E+00
 1.05000E+00
 1.05000E+00
 1.05000E+00
 1.05000E+00
 1.05000E+00
 1.05000E+00
 1.05000E+00
 1.05000E+00
 1.05000E+00
 1.05000E+00
 1.05000E+00
 1.05000E+00
 1.05000E+00
 1.05000E+00
 1.05000E+00
 1.05000E+00
 1.05000E+00
