# vtk DataFile Version 2.0
Output of NLACE
ASCII
DATASET UNSTRUCTURED_GRID
POINTS          216 FLOAT
 0.000000E+00  5.000000E+01  0.000000E+00
 1.000000E+01  5.000000E+01  0.000000E+00
 2.000000E+01  5.000000E+01  0.000000E+00
 3.000000E+01  5.000000E+01  0.000000E+00
 4.000000E+01  5.000000E+01  0.000000E+00
 5.000000E+01  5.000000E+01  0.000000E+00
 0.000000E+00  4.000000E+01  0.000000E+00
 1.000000E+01  4.000000E+01  0.000000E+00
 2.000000E+01  4.000000E+01  0.000000E+00
 3.000000E+01  4.000000E+01  0.000000E+00
 4.000000E+01  4.000000E+01  0.000000E+00
 5.000000E+01  4.000000E+01  0.000000E+00
 0.000000E+00  3.000000E+01  0.000000E+00
 1.000000E+01  3.000000E+01  0.000000E+00
 2.000000E+01  3.000000E+01  0.000000E+00
 3.000000E+01  3.000000E+01  0.000000E+00
 4.000000E+01  3.000000E+01  0.000000E+00
 5.000000E+01  3.000000E+01  0.000000E+00
 0.000000E+00  2.000000E+01  0.000000E+00
 1.000000E+01  2.000000E+01  0.000000E+00
 2.000000E+01  2.000000E+01  0.000000E+00
 3.000000E+01  2.000000E+01  0.000000E+00
 4.000000E+01  2.000000E+01  0.000000E+00
 5.000000E+01  2.000000E+01  0.000000E+00
 0.000000E+00  1.000000E+01  0.000000E+00
 1.000000E+01  1.000000E+01  0.000000E+00
 2.000000E+01  1.000000E+01  0.000000E+00
 3.000000E+01  1.000000E+01  0.000000E+00
 4.000000E+01  1.000000E+01  0.000000E+00
 5.000000E+01  1.000000E+01  0.000000E+00
 0.000000E+00  0.000000E+00  0.000000E+00
 1.000000E+01  0.000000E+00  0.000000E+00
 2.000000E+01  0.000000E+00  0.000000E+00
 3.000000E+01  0.000000E+00  0.000000E+00
 4.000000E+01  0.000000E+00  0.000000E+00
 5.000000E+01  0.000000E+00  0.000000E+00
 0.000000E+00  5.000000E+01  1.000000E+01
 1.000000E+01  5.000000E+01  1.000000E+01
 2.000000E+01  5.000000E+01  1.000000E+01
 3.000000E+01  5.000000E+01  1.000000E+01
 4.000000E+01  5.000000E+01  1.000000E+01
 5.000000E+01  5.000000E+01  1.000000E+01
 0.000000E+00  4.000000E+01  1.000000E+01
 1.000000E+01  4.000000E+01  1.000000E+01
 2.000000E+01  4.000000E+01  1.000000E+01
 3.000000E+01  4.000000E+01  1.000000E+01
 4.000000E+01  4.000000E+01  1.000000E+01
 5.000000E+01  4.000000E+01  1.000000E+01
 0.000000E+00  3.000000E+01  1.000000E+01
 1.000000E+01  3.000000E+01  1.000000E+01
 2.000000E+01  3.000000E+01  1.000000E+01
 3.000000E+01  3.000000E+01  1.000000E+01
 4.000000E+01  3.000000E+01  1.000000E+01
 5.000000E+01  3.000000E+01  1.000000E+01
 0.000000E+00  2.000000E+01  1.000000E+01
 1.000000E+01  2.000000E+01  1.000000E+01
 2.000000E+01  2.000000E+01  1.000000E+01
 3.000000E+01  2.000000E+01  1.000000E+01
 4.000000E+01  2.000000E+01  1.000000E+01
 5.000000E+01  2.000000E+01  1.000000E+01
 0.000000E+00  1.000000E+01  1.000000E+01
 1.000000E+01  1.000000E+01  1.000000E+01
 2.000000E+01  1.000000E+01  1.000000E+01
 3.000000E+01  1.000000E+01  1.000000E+01
 4.000000E+01  1.000000E+01  1.000000E+01
 5.000000E+01  1.000000E+01  1.000000E+01
 0.000000E+00  0.000000E+00  1.000000E+01
 1.000000E+01  0.000000E+00  1.000000E+01
 2.000000E+01  0.000000E+00  1.000000E+01
 3.000000E+01  0.000000E+00  1.000000E+01
 4.000000E+01  0.000000E+00  1.000000E+01
 5.000000E+01  0.000000E+00  1.000000E+01
 0.000000E+00  5.000000E+01  2.000000E+01
 1.000000E+01  5.000000E+01  2.000000E+01
 2.000000E+01  5.000000E+01  2.000000E+01
 3.000000E+01  5.000000E+01  2.000000E+01
 4.000000E+01  5.000000E+01  2.000000E+01
 5.000000E+01  5.000000E+01  2.000000E+01
 0.000000E+00  4.000000E+01  2.000000E+01
 1.000000E+01  4.000000E+01  2.000000E+01
 2.000000E+01  4.000000E+01  2.000000E+01
 3.000000E+01  4.000000E+01  2.000000E+01
 4.000000E+01  4.000000E+01  2.000000E+01
 5.000000E+01  4.000000E+01  2.000000E+01
 0.000000E+00  3.000000E+01  2.000000E+01
 1.000000E+01  3.000000E+01  2.000000E+01
 2.000000E+01  3.000000E+01  2.000000E+01
 3.000000E+01  3.000000E+01  2.000000E+01
 4.000000E+01  3.000000E+01  2.000000E+01
 5.000000E+01  3.000000E+01  2.000000E+01
 0.000000E+00  2.000000E+01  2.000000E+01
 1.000000E+01  2.000000E+01  2.000000E+01
 2.000000E+01  2.000000E+01  2.000000E+01
 3.000000E+01  2.000000E+01  2.000000E+01
 4.000000E+01  2.000000E+01  2.000000E+01
 5.000000E+01  2.000000E+01  2.000000E+01
 0.000000E+00  1.000000E+01  2.000000E+01
 1.000000E+01  1.000000E+01  2.000000E+01
 2.000000E+01  1.000000E+01  2.000000E+01
 3.000000E+01  1.000000E+01  2.000000E+01
 4.000000E+01  1.000000E+01  2.000000E+01
 5.000000E+01  1.000000E+01  2.000000E+01
 0.000000E+00  0.000000E+00  2.000000E+01
 1.000000E+01  0.000000E+00  2.000000E+01
 2.000000E+01  0.000000E+00  2.000000E+01
 3.000000E+01  0.000000E+00  2.000000E+01
 4.000000E+01  0.000000E+00  2.000000E+01
 5.000000E+01  0.000000E+00  2.000000E+01
 0.000000E+00  5.000000E+01  3.000000E+01
 1.000000E+01  5.000000E+01  3.000000E+01
 2.000000E+01  5.000000E+01  3.000000E+01
 3.000000E+01  5.000000E+01  3.000000E+01
 4.000000E+01  5.000000E+01  3.000000E+01
 5.000000E+01  5.000000E+01  3.000000E+01
 0.000000E+00  4.000000E+01  3.000000E+01
 1.000000E+01  4.000000E+01  3.000000E+01
 2.000000E+01  4.000000E+01  3.000000E+01
 3.000000E+01  4.000000E+01  3.000000E+01
 4.000000E+01  4.000000E+01  3.000000E+01
 5.000000E+01  4.000000E+01  3.000000E+01
 0.000000E+00  3.000000E+01  3.000000E+01
 1.000000E+01  3.000000E+01  3.000000E+01
 2.000000E+01  3.000000E+01  3.000000E+01
 3.000000E+01  3.000000E+01  3.000000E+01
 4.000000E+01  3.000000E+01  3.000000E+01
 5.000000E+01  3.000000E+01  3.000000E+01
 0.000000E+00  2.000000E+01  3.000000E+01
 1.000000E+01  2.000000E+01  3.000000E+01
 2.000000E+01  2.000000E+01  3.000000E+01
 3.000000E+01  2.000000E+01  3.000000E+01
 4.000000E+01  2.000000E+01  3.000000E+01
 5.000000E+01  2.000000E+01  3.000000E+01
 0.000000E+00  1.000000E+01  3.000000E+01
 1.000000E+01  1.000000E+01  3.000000E+01
 2.000000E+01  1.000000E+01  3.000000E+01
 3.000000E+01  1.000000E+01  3.000000E+01
 4.000000E+01  1.000000E+01  3.000000E+01
 5.000000E+01  1.000000E+01  3.000000E+01
 0.000000E+00  0.000000E+00  3.000000E+01
 1.000000E+01  0.000000E+00  3.000000E+01
 2.000000E+01  0.000000E+00  3.000000E+01
 3.000000E+01  0.000000E+00  3.000000E+01
 4.000000E+01  0.000000E+00  3.000000E+01
 5.000000E+01  0.000000E+00  3.000000E+01
 0.000000E+00  5.000000E+01  4.000000E+01
 1.000000E+01  5.000000E+01  4.000000E+01
 2.000000E+01  5.000000E+01  4.000000E+01
 3.000000E+01  5.000000E+01  4.000000E+01
 4.000000E+01  5.000000E+01  4.000000E+01
 5.000000E+01  5.000000E+01  4.000000E+01
 0.000000E+00  4.000000E+01  4.000000E+01
 1.000000E+01  4.000000E+01  4.000000E+01
 2.000000E+01  4.000000E+01  4.000000E+01
 3.000000E+01  4.000000E+01  4.000000E+01
 4.000000E+01  4.000000E+01  4.000000E+01
 5.000000E+01  4.000000E+01  4.000000E+01
 0.000000E+00  3.000000E+01  4.000000E+01
 1.000000E+01  3.000000E+01  4.000000E+01
 2.000000E+01  3.000000E+01  4.000000E+01
 3.000000E+01  3.000000E+01  4.000000E+01
 4.000000E+01  3.000000E+01  4.000000E+01
 5.000000E+01  3.000000E+01  4.000000E+01
 0.000000E+00  2.000000E+01  4.000000E+01
 1.000000E+01  2.000000E+01  4.000000E+01
 2.000000E+01  2.000000E+01  4.000000E+01
 3.000000E+01  2.000000E+01  4.000000E+01
 4.000000E+01  2.000000E+01  4.000000E+01
 5.000000E+01  2.000000E+01  4.000000E+01
 0.000000E+00  1.000000E+01  4.000000E+01
 1.000000E+01  1.000000E+01  4.000000E+01
 2.000000E+01  1.000000E+01  4.000000E+01
 3.000000E+01  1.000000E+01  4.000000E+01
 4.000000E+01  1.000000E+01  4.000000E+01
 5.000000E+01  1.000000E+01  4.000000E+01
 0.000000E+00  0.000000E+00  4.000000E+01
 1.000000E+01  0.000000E+00  4.000000E+01
 2.000000E+01  0.000000E+00  4.000000E+01
 3.000000E+01  0.000000E+00  4.000000E+01
 4.000000E+01  0.000000E+00  4.000000E+01
 5.000000E+01  0.000000E+00  4.000000E+01
 0.000000E+00  5.000000E+01  5.000000E+01
 1.000000E+01  5.000000E+01  5.000000E+01
 2.000000E+01  5.000000E+01  5.000000E+01
 3.000000E+01  5.000000E+01  5.000000E+01
 4.000000E+01  5.000000E+01  5.000000E+01
 5.000000E+01  5.000000E+01  5.000000E+01
 0.000000E+00  4.000000E+01  5.000000E+01
 1.000000E+01  4.000000E+01  5.000000E+01
 2.000000E+01  4.000000E+01  5.000000E+01
 3.000000E+01  4.000000E+01  5.000000E+01
 4.000000E+01  4.000000E+01  5.000000E+01
 5.000000E+01  4.000000E+01  5.000000E+01
 0.000000E+00  3.000000E+01  5.000000E+01
 1.000000E+01  3.000000E+01  5.000000E+01
 2.000000E+01  3.000000E+01  5.000000E+01
 3.000000E+01  3.000000E+01  5.000000E+01
 4.000000E+01  3.000000E+01  5.000000E+01
 5.000000E+01  3.000000E+01  5.000000E+01
 0.000000E+00  2.000000E+01  5.000000E+01
 1.000000E+01  2.000000E+01  5.000000E+01
 2.000000E+01  2.000000E+01  5.000000E+01
 3.000000E+01  2.000000E+01  5.000000E+01
 4.000000E+01  2.000000E+01  5.000000E+01
 5.000000E+01  2.000000E+01  5.000000E+01
 0.000000E+00  1.000000E+01  5.000000E+01
 1.000000E+01  1.000000E+01  5.000000E+01
 2.000000E+01  1.000000E+01  5.000000E+01
 3.000000E+01  1.000000E+01  5.000000E+01
 4.000000E+01  1.000000E+01  5.000000E+01
 5.000000E+01  1.000000E+01  5.000000E+01
 0.000000E+00  0.000000E+00  5.000000E+01
 1.000000E+01  0.000000E+00  5.000000E+01
 2.000000E+01  0.000000E+00  5.000000E+01
 3.000000E+01  0.000000E+00  5.000000E+01
 4.000000E+01  0.000000E+00  5.000000E+01
 5.000000E+01  0.000000E+00  5.000000E+01
CELLS          625        3125
4    0   36   42   37
4    7   42   43   37
4    7   42   37    0
4    7    0    6   42
4    1    0    7   37
4    7   37   43   44
4    2   37   44   38
4    2   37    7   44
4    1   37    7    2
4    8    7   44    2
4    2   38   44   39
4    9   44   45   39
4    9   44   39    2
4    9    2    8   44
4    3    2    9   39
4    9   39   45   46
4    4   39   46   40
4    4   39    9   46
4    3   39    9    4
4   10    9   46    4
4    4   40   46   41
4   11   46   47   41
4   11   46   41    4
4   11    4   10   46
4    5    4   11   41
4   12   42   48   49
4    7   42   49   43
4    7   42   12   49
4    6   42   12    7
4   13   12   49    7
4    7   43   49   44
4   14   49   50   44
4   14   49   44    7
4   14    7   13   49
4    8    7   14   44
4   14   44   50   51
[...]
POINT_DATA          216
 SCALARS measuredDisp11 float  1                   
LOOKUP_TABLE default
-1.67332E-01
-1.08596E-01
-3.96320E-02
 3.86400E-02
 1.10547E-01
 1.62677E-01
-1.53541E-01
-9.91780E-02
-3.50910E-02
 3.32210E-02
 9.81900E-02
 1.56923E-01
-1.32154E-01
-7.74310E-02
-2.59610E-02
 2.32090E-02
 7.91040E-02
 1.35073E-01
-1.30278E-01
-7.41310E-02
-2.20620E-02
 2.28340E-02
 7.21680E-02
 1.27982E-01
-1.16783E-01
-5.92110E-02
-2.08900E-02
 1.93890E-02
 5.89440E-02
 1.08237E-01
 0.00000E+00
 0.00000E+00
 0.00000E+00
 0.00000E+00
 0.00000E+00
 0.00000E+00
-1.69546E-01
-1.22352E-01
-4.03350E-02
 4.71050E-02
 1.13553E-01
 1.71759E-01
-1.58749E-01
-1.00755E-01
-3.74140E-02
 3.44960E-02
 1.03756E-01
 1.58455E-01
-1.30278E-01
-7.09360E-02
-2.42830E-02
 1.91800E-02
 7.67920E-02
 1.35206E-01
-1.31722E-01
-7.32240E-02
-1.77180E-02
 2.33120E-02
 6.79030E-02
 1.28008E-01
-1.09506E-01
-6.35610E-02
-1.97170E-02
 2.55250E-02
 6.28820E-02
 1.15754E-01
 0.00000E+00
 0.00000E+00
 0.00000E+00
 0.00000E+00
 0.00000E+00
 0.00000E+00
-1.85686E-01
-1.29721E-01
-5.49520E-02
 4.95770E-02
 1.37225E-01
 1.80415E-01
-1.60504E-01
-1.05712E-01
-3.80080E-02
 3.36140E-02
 1.05441E-01
 1.65961E-01
-1.28425E-01
-6.42880E-02
-1.71080E-02
 1.87600E-02
 6.09090E-02
 1.25220E-01
-1.25525E-01
-6.03200E-02
-1.86800E-02
 1.62120E-02
 6.32870E-02
 1.27016E-01
-1.24114E-01
-7.14330E-02
-2.51770E-02
 2.57840E-02
 7.06190E-02
 1.17938E-01
 0.00000E+00
 0.00000E+00
 0.00000E+00
 0.00000E+00
 0.00000E+00
 0.00000E+00
-1.80415E-01
-1.37225E-01
-4.95770E-02
 5.49520E-02
 1.29721E-01
 1.85686E-01
-1.65961E-01
-1.05441E-01
-3.36140E-02
 3.80080E-02
 1.05712E-01
 1.60504E-01
-1.25220E-01
-6.09090E-02
-1.87600E-02
 1.71080E-02
 6.42880E-02
 1.28425E-01
-1.27016E-01
-6.32870E-02
-1.62120E-02
 1.86800E-02
 6.03200E-02
 1.25525E-01
-1.17938E-01
-7.06190E-02
-2.57840E-02
 2.51770E-02
 7.14330E-02
 1.24114E-01
 0.00000E+00
 0.00000E+00
 0.00000E+00
 0.00000E+00
 0.00000E+00
 0.00000E+00
-1.71759E-01
-1.13553E-01
-4.71050E-02
 4.03350E-02
 1.22352E-01
 1.69546E-01
-1.58455E-01
-1.03756E-01
-3.44960E-02
 3.74140E-02
 1.00755E-01
 1.58749E-01
-1.35206E-01
-7.67920E-02
-1.91800E-02
 2.42830E-02
 7.09360E-02
 1.30278E-01
-1.28008E-01
-6.79030E-02
-2.33120E-02
 1.77180E-02
 7.32240E-02
 1.31722E-01
-1.15754E-01
-6.28820E-02
-2.55250E-02
 1.97170E-02
 6.35610E-02
 1.09506E-01
 0.00000E+00
 0.00000E+00
 0.00000E+00
 0.00000E+00
 0.00000E+00
 0.00000E+00
-1.62677E-01
-1.10547E-01
-3.86400E-02
 3.96320E-02
 1.08596E-01
 1.67332E-01
-1.56923E-01
-9.81900E-02
-3.32210E-02
 3.50910E-02
 9.91780E-02
 1.53541E-01
-1.35073E-01
-7.91040E-02
-2.32090E-02
 2.59610E-02
 7.74310E-02
 1.32154E-01
-1.27982E-01
-7.21680E-02
-2.28340E-02
 2.20620E-02
 7.41310E-02
 1.30278E-01
-1.08237E-01
-5.89440E-02
-1.93890E-02
 2.08900E-02
 5.92110E-02
 1.16783E-01
 0.00000E+00
 0.00000E+00
 0.00000E+00
 0.00000E+00
 0.00000E+00
 0.00000E+00
 SCALARS measuredDisp12 float  1                   
LOOKUP_TABLE default
-4.99767E-01
-4.99735E-01
-4.99706E-01
-4.99747E-01
-4.99691E-01
-4.99741E-01
-4.00975E-01
-3.92461E-01
-3.83089E-01
-3.85911E-01
-3.88843E-01
-3.98152E-01
-2.86593E-01
-2.74965E-01
-2.64427E-01
-2.61706E-01
-2.71401E-01
-2.87057E-01
-1.72407E-01
-1.61366E-01
-1.51617E-01
-1.45029E-01
-1.56313E-01
-1.75584E-01
-6.44670E-02
-6.53260E-02
-3.81550E-02
-5.75160E-02
-3.91480E-02
-8.24400E-02
 0.00000E+00
 0.00000E+00
 0.00000E+00
 0.00000E+00
 0.00000E+00
 0.00000E+00
-4.99735E-01
-4.99586E-01
-4.99537E-01
-4.99544E-01
-4.99649E-01
-4.99691E-01
-3.92461E-01
-3.77252E-01
-3.52165E-01
-3.61799E-01
-3.76215E-01
-3.88843E-01
-2.74965E-01
-2.58589E-01
-2.44043E-01
-2.27646E-01
-2.53356E-01
-2.71401E-01
-1.61366E-01
-1.47229E-01
-1.47063E-01
-1.35238E-01
-1.40700E-01
-1.56313E-01
-6.53260E-02
-2.26930E-02
-4.68460E-02
-3.13200E-02
-4.46400E-02
-3.91480E-02
 0.00000E+00
 0.00000E+00
 0.00000E+00
 0.00000E+00
 0.00000E+00
 0.00000E+00
-4.99706E-01
-4.99537E-01
-4.99258E-01
-4.99306E-01
-4.99544E-01
-4.99747E-01
-3.83089E-01
-3.52165E-01
-3.25296E-01
-3.08831E-01
-3.61799E-01
-3.85911E-01
-2.64427E-01
-2.44043E-01
-2.09970E-01
-2.17319E-01
-2.27646E-01
-2.61706E-01
-1.51617E-01
-1.47063E-01
-1.42754E-01
-1.47669E-01
-1.35238E-01
-1.45029E-01
-3.81550E-02
-4.68460E-02
-5.62990E-02
-6.15170E-02
-3.13200E-02
-5.75160E-02
 0.00000E+00
 0.00000E+00
 0.00000E+00
 0.00000E+00
 0.00000E+00
 0.00000E+00
-4.99747E-01
-4.99544E-01
-4.99306E-01
-4.99258E-01
-4.99537E-01
-4.99706E-01
-3.85911E-01
-3.61799E-01
-3.08831E-01
-3.25296E-01
-3.52165E-01
-3.83089E-01
-2.61706E-01
-2.27646E-01
-2.17319E-01
-2.09970E-01
-2.44043E-01
-2.64427E-01
-1.45029E-01
-1.35238E-01
-1.47669E-01
-1.42754E-01
-1.47063E-01
-1.51617E-01
-5.75160E-02
-3.13200E-02
-6.15170E-02
-5.62990E-02
-4.68460E-02
-3.81550E-02
 0.00000E+00
 0.00000E+00
 0.00000E+00
 0.00000E+00
 0.00000E+00
 0.00000E+00
-4.99691E-01
-4.99649E-01
-4.99544E-01
-4.99537E-01
-4.99586E-01
-4.99735E-01
-3.88843E-01
-3.76215E-01
-3.61799E-01
-3.52165E-01
-3.77252E-01
-3.92461E-01
-2.71401E-01
-2.53356E-01
-2.27646E-01
-2.44043E-01
-2.58589E-01
-2.74965E-01
-1.56313E-01
-1.40700E-01
-1.35238E-01
-1.47063E-01
-1.47229E-01
-1.61366E-01
-3.91480E-02
-4.46400E-02
-3.13200E-02
-4.68460E-02
-2.26930E-02
-6.53260E-02
 0.00000E+00
 0.00000E+00
 0.00000E+00
 0.00000E+00
 0.00000E+00
 0.00000E+00
-4.99741E-01
-4.99691E-01
-4.99747E-01
-4.99706E-01
-4.99735E-01
-4.99767E-01
-3.98152E-01
-3.88843E-01
-3.85911E-01
-3.83089E-01
-3.92461E-01
-4.00975E-01
-2.87057E-01
-2.71401E-01
-2.61706E-01
-2.64427E-01
-2.74965E-01
-2.86593E-01
-1.75584E-01
-1.56313E-01
-1.45029E-01
-1.51617E-01
-1.61366E-01
-1.72407E-01
-8.24400E-02
-3.91480E-02
-5.75160E-02
-3.81550E-02
-6.53260E-02
-6.44670E-02
 0.00000E+00
 0.00000E+00
 0.00000E+00
 0.00000E+00
 0.00000E+00
 0.00000E+00
 SCALARS measuredDisp13 float  1                   
LOOKUP_TABLE default
-1.67332E-01
-1.69546E-01
-1.85686E-01
-1.80415E-01
-1.71759E-01
-1.62677E-01
-1.53541E-01
-1.58749E-01
-1.60504E-01
-1.65961E-01
-1.58455E-01
-1.56923E-01
-1.32154E-01
-1.30278E-01
-1.28425E-01
-1.25220E-01
-1.35206E-01
-1.35073E-01
-1.30278E-01
-1.31722E-01
-1.25525E-01
-1.27016E-01
-1.28008E-01
-1.27982E-01
-1.16783E-01
-1.09506E-01
-1.24114E-01
-1.17938E-01
-1.15754E-01
-1.08237E-01
 0.00000E+00
 0.00000E+00
 0.00000E+00
 0.00000E+00
 0.00000E+00
 0.00000E+00
-1.08596E-01
-1.22352E-01
-1.29721E-01
-1.37225E-01
-1.13553E-01
-1.10547E-01
-9.91780E-02
-1.00755E-01
-1.05712E-01
-1.05441E-01
-1.03756E-01
-9.81900E-02
-7.74310E-02
-7.09360E-02
-6.42880E-02
-6.09090E-02
-7.67920E-02
-7.91040E-02
-7.41310E-02
-7.32240E-02
-6.03200E-02
-6.32870E-02
-6.79030E-02
-7.21680E-02
-5.92110E-02
-6.35610E-02
-7.14330E-02
-7.06190E-02
-6.28820E-02
-5.89440E-02
 0.00000E+00
 0.00000E+00
 0.00000E+00
 0.00000E+00
 0.00000E+00
 0.00000E+00
-3.96320E-02
-4.03350E-02
-5.49520E-02
-4.95770E-02
-4.71050E-02
-3.86400E-02
-3.50910E-02
-3.74140E-02
-3.80080E-02
-3.36140E-02
-3.44960E-02
-3.32210E-02
-2.59610E-02
-2.42830E-02
-1.71080E-02
-1.87600E-02
-1.91800E-02
-2.32090E-02
-2.20620E-02
-1.77180E-02
-1.86800E-02
-1.62120E-02
-2.33120E-02
-2.28340E-02
-2.08900E-02
-1.97170E-02
-2.51770E-02
-2.57840E-02
-2.55250E-02
-1.93890E-02
 0.00000E+00
 0.00000E+00
 0.00000E+00
 0.00000E+00
 0.00000E+00
 0.00000E+00
 3.86400E-02
 4.71050E-02
 4.95770E-02
 5.49520E-02
 4.03350E-02
 3.96320E-02
 3.32210E-02
 3.44960E-02
 3.36140E-02
 3.80080E-02
 3.74140E-02
 3.50910E-02
 2.32090E-02
 1.91800E-02
 1.87600E-02
 1.71080E-02
 2.42830E-02
 2.59610E-02
 2.28340E-02
 2.33120E-02
 1.62120E-02
 1.86800E-02
 1.77180E-02
 2.20620E-02
 1.93890E-02
 2.55250E-02
 2.57840E-02
 2.51770E-02
 1.97170E-02
 2.08900E-02
 0.00000E+00
 0.00000E+00
 0.00000E+00
 0.00000E+00
 0.00000E+00
 0.00000E+00
 1.10547E-01
 1.13553E-01
 1.37225E-01
 1.29721E-01
 1.22352E-01
 1.08596E-01
 9.81900E-02
 1.03756E-01
 1.05441E-01
 1.05712E-01
 1.00755E-01
 9.91780E-02
 7.91040E-02
 7.67920E-02
 6.09090E-02
 6.42880E-02
 7.09360E-02
 7.74310E-02
 7.21680E-02
 6.79030E-02
 6.32870E-02
 6.03200E-02
 7.32240E-02
 7.41310E-02
 5.89440E-02
 6.28820E-02
 7.06190E-02
 7.14330E-02
 6.35610E-02
 5.92110E-02
 0.00000E+00
 0.00000E+00
 0.00000E+00
 0.00000E+00
 0.00000E+00
 0.00000E+00
 1.62677E-01
 1.71759E-01
 1.80415E-01
 1.85686E-01
 1.69546E-01
 1.67332E-01
 1.56923E-01
 1.58455E-01
 1.65961E-01
 1.60504E-01
 1.58749E-01
 1.53541E-01
 1.35073E-01
 1.35206E-01
 1.25220E-01
 1.28425E-01
 1.30278E-01
 1.32154E-01
 1.27982E-01
 1.28008E-01
 1.27016E-01
 1.25525E-01
 1.31722E-01
 1.30278E-01
 1.08237E-01
 1.15754E-01
 1.17938E-01
 1.24114E-01
 1.09506E-01
 1.16783E-01
 0.00000E+00
 0.00000E+00
 0.00000E+00
 0.00000E+00
 0.00000E+00
 0.00000E+00
 SCALARS measuredDisp14 float  1                   
LOOKUP_TABLE default
 0.00000E+00
 0.00000E+00
 0.00000E+00
 0.00000E+00
 0.00000E+00
 0.00000E+00
 0.00000E+00
 0.00000E+00
 0.00000E+00
 0.00000E+00
 0.00000E+00
 0.00000E+00
 0.00000E+00
 0.00000E+00
 0.00000E+00
 0.00000E+00
 0.00000E+00
 0.00000E+00
 0.00000E+00
 0.00000E+00
 0.00000E+00
 0.00000E+00
 0.00000E+00
 0.00000E+00
 0.00000E+00
 0.00000E+00
 0.00000E+00
 0.00000E+00
 0.00000E+00
 0.00000E+00
 0.00000E+00
 0.00000E+00
 0.00000E+00
 0.00000E+00
 0.00000E+00
 0.00000E+00
 0.00000E+00
 0.00000E+00
 0.00000E+00
 0.00000E+00
 0.00000E+00
 0.00000E+00
 0.00000E+00
 0.00000E+00
 0.00000E+00
 0.00000E+00
 0.00000E+00
 0.00000E+00
 0.00000E+00
 0.00000E+00
 0.00000E+00
 0.00000E+00
 0.00000E+00
 0.00000E+00
 0.00000E+00
 0.00000E+00
 0.00000E+00
 0.00000E+00
 0.00000E+00
 0.00000E+00
 0.00000E+00
 0.00000E+00
 0.00000E+00
 0.00000E+00
 0.00000E+00
 0.00000E+00
 0.00000E+00
 0.00000E+00
 0.00000E+00
 0.00000E+00
 0.00000E+00
 0.00000E+00
 0.00000E+00
 0.00000E+00
 0.00000E+00
 0.00000E+00
 0.00000E+00
 0.00000E+00
 0.00000E+00
 0.00000E+00
 0.00000E+00
 0.00000E+00
 0.00000E+00
 0.00000E+00
 0.00000E+00
 0.00000E+00
 0.00000E+00
 0.00000E+00
 0.00000E+00
 0.00000E+00
 0.00000E+00
 0.00000E+00
 0.00000E+00
 0.00000E+00
 0.00000E+00
 0.00000E+00
 0.00000E+00
 0.00000E+00
 0.00000E+00
 0.00000E+00
 0.00000E+00
 0.00000E+00
 0.00000E+00
 0.00000E+00
 0.00000E+00
 0.00000E+00
 0.00000E+00
 0.00000E+00
 0.00000E+00
 0.00000E+00
 0.00000E+00
 0.00000E+00
 0.00000E+00
 0.00000E+00
 0.00000E+00
 0.00000E+00
 0.00000E+00
 0.00000E+00
 0.00000E+00
 0.00000E+00
 0.00000E+00
 0.00000E+00
 0.00000E+00
 0.00000E+00
 0.00000E+00
 0.00000E+00
 0.00000E+00
 0.00000E+00
 0.00000E+00
 0.00000E+00
 0.00000E+00
 0.00000E+00
 0.00000E+00
 0.00000E+00
 0.00000E+00
 0.00000E+00
 0.00000E+00
 0.00000E+00
 0.00000E+00
 0.00000E+00
 0.00000E+00
 0.00000E+00
 0.00000E+00
 0.00000E+00
 0.00000E+00
 0.00000E+00
 0.00000E+00
 0.00000E+00
 0.00000E+00
 0.00000E+00
 0.00000E+00
 0.00000E+00
 0.00000E+00
 0.00000E+00
 0.00000E+00
 0.00000E+00
 0.00000E+00
 0.00000E+00
 0.00000E+00
 0.00000E+00
 0.00000E+00
 0.00000E+00
 0.00000E+00
 0.00000E+00
 0.00000E+00
 0.00000E+00
 0.00000E+00
 0.00000E+00
 0.00000E+00
 0.00000E+00
 0.00000E+00
 0.00000E+00
 0.00000E+00
 0.00000E+00
 0.00000E+00
 0.00000E+00
 0.00000E+00
 0.00000E+00
 0.00000E+00
 0.00000E+00
 0.00000E+00
 0.00000E+00
 0.00000E+00
 0.00000E+00
 0.00000E+00
 0.00000E+00
 0.00000E+00
 0.00000E+00
 0.00000E+00
 0.00000E+00
 0.00000E+00
 0.00000E+00
 0.00000E+00
 0.00000E+00
 0.00000E+00
 0.00000E+00
 0.00000E+00
 0.00000E+00
 0.00000E+00
 0.00000E+00
 0.00000E+00
 0.00000E+00
 0.00000E+00
 0.00000E+00
 0.00000E+00
 0.00000E+00
 0.00000E+00
 0.00000E+00
 0.00000E+00
 0.00000E+00
 0.00000E+00
 0.00000E+00
 0.00000E+00
 0.00000E+00
 0.00000E+00
 0.00000E+00
 SCALARS predictedDisp11 float  1                  
LOOKUP_TABLE default
-1.69872E-01
-1.11059E-01
-4.16077E-02
 3.73363E-02
 1.10601E-01
 1.59615E-01
-1.54161E-01
-1.00307E-01
-3.59689E-02
 3.10396E-02
 9.51903E-02
 1.53490E-01
-1.33366E-01
-7.78175E-02
-2.61799E-02
 2.06725E-02
 7.46156E-02
 1.34644E-01
-1.31389E-01
-7.46542E-02
-2.29237E-02
 2.16814E-02
 7.21688E-02
 1.28721E-01
-1.15087E-01
-5.97083E-02
-2.18802E-02
 1.98816E-02
 5.89628E-02
 1.05615E-01
 0.00000E+00
 0.00000E+00
 0.00000E+00
 0.00000E+00
 0.00000E+00
 0.00000E+00
-1.71986E-01
-1.25380E-01
-4.31943E-02
 4.48486E-02
 1.13889E-01
 1.70758E-01
-1.60224E-01
-1.02073E-01
-3.84199E-02
 3.26535E-02
 1.01225E-01
 1.56418E-01
-1.31527E-01
-7.05828E-02
-2.45986E-02
 1.76249E-02
 7.34261E-02
 1.34759E-01
-1.33773E-01
-7.38722E-02
-1.89404E-02
 2.26984E-02
 6.82179E-02
 1.27656E-01
-1.09521E-01
-6.46612E-02
-2.08251E-02
 2.52503E-02
 6.25349E-02
 1.13631E-01
 0.00000E+00
 0.00000E+00
 0.00000E+00
 0.00000E+00
 0.00000E+00
 0.00000E+00
-1.88509E-01
-1.33518E-01
-6.08896E-02
 5.05326E-02
 1.41113E-01
 1.82108E-01
-1.60890E-01
-1.06770E-01
-4.03661E-02
 3.16538E-02
 1.04823E-01
 1.64672E-01
-1.30341E-01
-6.37896E-02
-1.78067E-02
 1.68856E-02
 5.91310E-02
 1.25818E-01
-1.27671E-01
-6.23611E-02
-1.92808E-02
 1.61739E-02
 6.37233E-02
 1.27209E-01
-1.26566E-01
-7.35853E-02
-2.53319E-02
 2.56815E-02
 7.03094E-02
 1.17478E-01
 0.00000E+00
 0.00000E+00
 0.00000E+00
 0.00000E+00
 0.00000E+00
 0.00000E+00
-1.83610E-01
-1.42714E-01
-5.30391E-02
 5.81054E-02
 1.32073E-01
 1.87574E-01
-1.66379E-01
-1.06853E-01
-3.43714E-02
 3.79306E-02
 1.04947E-01
 1.59445E-01
-1.27343E-01
-6.10429E-02
-1.87352E-02
 1.60043E-02
 6.20449E-02
 1.28971E-01
-1.28548E-01
-6.47386E-02
-1.69568E-02
 1.83881E-02
 6.11934E-02
 1.26263E-01
-1.18567E-01
-7.08247E-02
-2.58052E-02
 2.52323E-02
 7.24519E-02
 1.24611E-01
 0.00000E+00
 0.00000E+00
 0.00000E+00
 0.00000E+00
 0.00000E+00
 0.00000E+00
-1.73193E-01
-1.16461E-01
-4.79194E-02
 4.07142E-02
 1.24251E-01
 1.71116E-01
-1.58967E-01
-1.03732E-01
-3.52329E-02
 3.60479E-02
 1.00670E-01
 1.59437E-01
-1.36371E-01
-7.52182E-02
-1.94520E-02
 2.28344E-02
 6.89271E-02
 1.30241E-01
-1.28418E-01
-6.90276E-02
-2.34868E-02
 1.80700E-02
 7.24566E-02
 1.31973E-01
-1.14184E-01
-6.28041E-02
-2.51776E-02
 2.04731E-02
 6.34585E-02
 1.07742E-01
 0.00000E+00
 0.00000E+00
 0.00000E+00
 0.00000E+00
 0.00000E+00
 0.00000E+00
-1.62946E-01
-1.13793E-01
-4.04776E-02
 3.89144E-02
 1.09678E-01
 1.69400E-01
-1.56676E-01
-9.81372E-02
-3.39141E-02
 3.36909E-02
 9.89919E-02
 1.53376E-01
-1.36259E-01
-7.64850E-02
-2.26231E-02
 2.43354E-02
 7.62199E-02
 1.32112E-01
-1.28968E-01
-7.26547E-02
-2.23185E-02
 2.19400E-02
 7.30643E-02
 1.29565E-01
-1.05700E-01
-5.88659E-02
-1.97228E-02
 2.17352E-02
 5.86097E-02
 1.12815E-01
 0.00000E+00
 0.00000E+00
 0.00000E+00
 0.00000E+00
 0.00000E+00
 0.00000E+00
 SCALARS predictedDisp12 float  1                  
LOOKUP_TABLE default
-4.99727E-01
-4.99695E-01
-4.99587E-01
-4.99655E-01
-4.99583E-01
-4.99705E-01
-4.01237E-01
-3.92253E-01
-3.83723E-01
-3.85747E-01
-3.91260E-01
-4.03506E-01
-2.84910E-01
-2.73456E-01
-2.65959E-01
-2.64550E-01
-2.73096E-01
-2.85363E-01
-1.69474E-01
-1.58145E-01
-1.52955E-01
-1.47363E-01
-1.53786E-01
-1.67224E-01
-6.09993E-02
-6.37501E-02
-4.08302E-02
-5.90837E-02
-3.82615E-02
-7.99007E-02
 0.00000E+00
 0.00000E+00
 0.00000E+00
 0.00000E+00
 0.00000E+00
 0.00000E+00
-4.99702E-01
-4.99502E-01
-4.99365E-01
-4.99384E-01
-4.99594E-01
-4.99620E-01
-3.93156E-01
-3.76953E-01
-3.51412E-01
-3.59485E-01
-3.74648E-01
-3.90209E-01
-2.74949E-01
-2.58501E-01
-2.44870E-01
-2.28391E-01
-2.52658E-01
-2.69233E-01
-1.58063E-01
-1.45521E-01
-1.48609E-01
-1.35784E-01
-1.38734E-01
-1.51467E-01
-6.37367E-02
-2.22036E-02
-4.78609E-02
-3.09120E-02
-4.32751E-02
-3.83005E-02
 0.00000E+00
 0.00000E+00
 0.00000E+00
 0.00000E+00
 0.00000E+00
 0.00000E+00
-4.99612E-01
-4.99391E-01
-4.99147E-01
-4.99362E-01
-4.99416E-01
-4.99691E-01
-3.85413E-01
-3.52782E-01
-3.22086E-01
-3.03953E-01
-3.60023E-01
-3.87624E-01
-2.68214E-01
-2.45830E-01
-2.10338E-01
-2.14168E-01
-2.26654E-01
-2.62370E-01
-1.51869E-01
-1.47845E-01
-1.43012E-01
-1.45627E-01
-1.34226E-01
-1.43189E-01
-4.00598E-02
-4.81419E-02
-5.43515E-02
-5.99069E-02
-3.10091E-02
-5.77413E-02
 0.00000E+00
 0.00000E+00
 0.00000E+00
 0.00000E+00
 0.00000E+00
 0.00000E+00
-4.99692E-01
-4.99409E-01
-4.99343E-01
-4.99161E-01
-4.99399E-01
-4.99607E-01
-3.88224E-01
-3.60982E-01
-3.04821E-01
-3.20948E-01
-3.51150E-01
-3.84657E-01
-2.63364E-01
-2.28139E-01
-2.14651E-01
-2.08994E-01
-2.43783E-01
-2.66429E-01
-1.44492E-01
-1.35366E-01
-1.45927E-01
-1.41869E-01
-1.45768E-01
-1.50457E-01
-5.83045E-02
-3.13179E-02
-6.00005E-02
-5.35386E-02
-4.73182E-02
-3.93305E-02
 0.00000E+00
 0.00000E+00
 0.00000E+00
 0.00000E+00
 0.00000E+00
 0.00000E+00
-4.99628E-01
-4.99589E-01
-4.99380E-01
-4.99369E-01
-4.99510E-01
-4.99697E-01
-3.90185E-01
-3.74825E-01
-3.59375E-01
-3.49944E-01
-3.75565E-01
-3.92386E-01
-2.69086E-01
-2.52607E-01
-2.27693E-01
-2.42783E-01
-2.55748E-01
-2.73386E-01
-1.51751E-01
-1.39135E-01
-1.35420E-01
-1.46576E-01
-1.43333E-01
-1.56030E-01
-3.85059E-02
-4.33344E-02
-3.07538E-02
-4.70352E-02
-2.15311E-02
-6.26994E-02
 0.00000E+00
 0.00000E+00
 0.00000E+00
 0.00000E+00
 0.00000E+00
 0.00000E+00
-4.99699E-01
-4.99582E-01
-4.99647E-01
-4.99593E-01
-4.99693E-01
-4.99725E-01
-4.02598E-01
-3.90426E-01
-3.84760E-01
-3.82116E-01
-3.90688E-01
-4.00334E-01
-2.84530E-01
-2.71742E-01
-2.63144E-01
-2.62971E-01
-2.70893E-01
-2.82997E-01
-1.67030E-01
-1.53414E-01
-1.46614E-01
-1.50974E-01
-1.55533E-01
-1.67725E-01
-7.98454E-02
-3.82727E-02
-5.86812E-02
-4.02258E-02
-6.26146E-02
-5.99974E-02
 0.00000E+00
 0.00000E+00
 0.00000E+00
 0.00000E+00
 0.00000E+00
 0.00000E+00
 SCALARS predictedDisp13 float  1                  
LOOKUP_TABLE default
-1.67809E-01
-1.71257E-01
-1.88656E-01
-1.84707E-01
-1.74649E-01
-1.64450E-01
-1.52945E-01
-1.59615E-01
-1.60739E-01
-1.66205E-01
-1.59302E-01
-1.59370E-01
-1.33334E-01
-1.30966E-01
-1.28642E-01
-1.26376E-01
-1.36243E-01
-1.38378E-01
-1.31634E-01
-1.32648E-01
-1.26484E-01
-1.27672E-01
-1.29000E-01
-1.28387E-01
-1.15071E-01
-1.08046E-01
-1.23692E-01
-1.16143E-01
-1.12629E-01
-1.04904E-01
 0.00000E+00
 0.00000E+00
 0.00000E+00
 0.00000E+00
 0.00000E+00
 0.00000E+00
-1.09223E-01
-1.23986E-01
-1.32478E-01
-1.41859E-01
-1.17161E-01
-1.14931E-01
-9.90065E-02
-1.00957E-01
-1.06149E-01
-1.06759E-01
-1.05055E-01
-1.00080E-01
-7.83468E-02
-7.05582E-02
-6.42979E-02
-6.19739E-02
-7.64008E-02
-7.88265E-02
-7.50318E-02
-7.32959E-02
-6.18734E-02
-6.39827E-02
-6.80763E-02
-7.22157E-02
-5.93060E-02
-6.30885E-02
-7.12785E-02
-6.82738E-02
-6.17873E-02
-5.79804E-02
 0.00000E+00
 0.00000E+00
 0.00000E+00
 0.00000E+00
 0.00000E+00
 0.00000E+00
-4.00545E-02
-4.18138E-02
-5.92177E-02
-5.25498E-02
-4.83927E-02
-4.14446E-02
-3.54492E-02
-3.79280E-02
-3.98166E-02
-3.43243E-02
-3.58586E-02
-3.46178E-02
-2.62666E-02
-2.45125E-02
-1.80317E-02
-1.90766E-02
-1.99257E-02
-2.36142E-02
-2.20479E-02
-1.82894E-02
-1.90608E-02
-1.69037E-02
-2.34546E-02
-2.30459E-02
-2.15468E-02
-2.05352E-02
-2.47100E-02
-2.52643E-02
-2.47411E-02
-1.95017E-02
 0.00000E+00
 0.00000E+00
 0.00000E+00
 0.00000E+00
 0.00000E+00
 0.00000E+00
 3.81087E-02
 4.51546E-02
 4.98605E-02
 5.69265E-02
 3.94197E-02
 3.73391E-02
 3.14462E-02
 3.29723E-02
 3.17520E-02
 3.74075E-02
 3.54637E-02
 3.27804E-02
 2.17273E-02
 1.81184E-02
 1.73032E-02
 1.61633E-02
 2.26782E-02
 2.43500E-02
 2.24013E-02
 2.26352E-02
 1.59823E-02
 1.80675E-02
 1.72486E-02
 2.10828E-02
 1.94454E-02
 2.45705E-02
 2.48414E-02
 2.42777E-02
 1.98641E-02
 2.11400E-02
 0.00000E+00
 0.00000E+00
 0.00000E+00
 0.00000E+00
 0.00000E+00
 0.00000E+00
 1.10982E-01
 1.13926E-01
 1.38878E-01
 1.30600E-01
 1.22178E-01
 1.07015E-01
 9.68656E-02
 1.02233E-01
 1.04381E-01
 1.04047E-01
 9.90789E-02
 9.68886E-02
 7.69500E-02
 7.46632E-02
 6.03787E-02
 6.25515E-02
 6.87901E-02
 7.66488E-02
 7.16228E-02
 6.74137E-02
 6.29925E-02
 6.07672E-02
 7.19083E-02
 7.37541E-02
 5.81122E-02
 6.16397E-02
 6.77126E-02
 7.00718E-02
 6.18024E-02
 5.82212E-02
 0.00000E+00
 0.00000E+00
 0.00000E+00
 0.00000E+00
 0.00000E+00
 0.00000E+00
 1.60999E-01
 1.71743E-01
 1.82450E-01
 1.87202E-01
 1.69841E-01
 1.66070E-01
 1.56504E-01
 1.57053E-01
 1.64384E-01
 1.59342E-01
 1.58417E-01
 1.51396E-01
 1.36304E-01
 1.34370E-01
 1.24676E-01
 1.27193E-01
 1.29465E-01
 1.31976E-01
 1.27496E-01
 1.27754E-01
 1.26133E-01