# vtk DataFile Version 2.0
Output of NLACE
ASCII
DATASET UNSTRUCTURED_GRID
POINTS         2601 FLOAT
 0.000000E+00  0.000000E+00  0.000000E+00
 1.000000E+00  0.000000E+00  0.000000E+00
 2.000000E+00  0.000000E+00  0.000000E+00
 3.000000E+00  0.000000E+00  0.000000E+00
 4.000000E+00  0.000000E+00  0.000000E+00
 5.000000E+00  0.000000E+00  0.000000E+00
 6.000000E+00  0.000000E+00  0.000000E+00
 7.000000E+00  0.000000E+00  0.000000E+00
 8.000000E+00  0.000000E+00  0.000000E+00
 9.000000E+00  0.000000E+00  0.000000E+00
 1.000000E+01  0.000000E+00  0.000000E+00
 1.100000E+01  0.000000E+00  0.000000E+00
 1.200000E+01  0.000000E+00  0.000000E+00
 1.300000E+01  0.000000E+00  0.000000E+00
 1.400000E+01  0.000000E+00  0.000000E+00
 1.500000E+01  0.000000E+00  0.000000E+00
 1.600000E+01  0.000000E+00  0.000000E+00
 1.700000E+01  0.000000E+00  0.000000E+00
 1.800000E+01  0.000000E+00  0.000000E+00
 1.900000E+01  0.000000E+00  0.000000E+00
 2.000000E+01  0.000000E+00  0.000000E+00
 2.100000E+01  0.000000E+00  0.000000E+00
 2.200000E+01  0.000000E+00  0.000000E+00
 2.300000E+01  0.000000E+00  0.000000E+00
 2.400000E+01  0.000000E+00  0.000000E+00
 2.500000E+01  0.000000E+00  0.000000E+00
 2.600000E+01  0.000000E+00  0.000000E+00
 2.700000E+01  0.000000E+00  0.000000E+00
 2.800000E+01  0.000000E+00  0.000000E+00
 2.900000E+01  0.000000E+00  0.000000E+00
 3.000000E+01  0.000000E+00  0.000000E+00
 3.100000E+01  0.000000E+00  0.000000E+00
 3.200000E+01  0.000000E+00  0.000000E+00
 3.300000E+01  0.000000E+00  0.000000E+00
 3.400000E+01  0.000000E+00  0.000000E+00
 3.500000E+01  0.000000E+00  0.000000E+00
 3.600000E+01  0.000000E+00  0.000000E+00
 3.700000E+01  0.000000E+00  0.000000E+00
 3.800000E+01  0.000000E+00  0.000000E+00
 3.900000E+01  0.000000E+00  0.000000E+00
 4.000000E+01  0.000000E+00  0.000000E+00
 4.100000E+01  0.000000E+00  0.000000E+00
 4.200000E+01  0.000000E+00  0.000000E+00
 4.300000E+01  0.000000E+00  0.000000E+00
 4.400000E+01  0.000000E+00  0.000000E+00
 4.500000E+01  0.000000E+00  0.000000E+00
 4.600000E+01  0.000000E+00  0.000000E+00
 4.700000E+01  0.000000E+00  0.000000E+00
 4.800000E+01  0.000000E+00  0.000000E+00
 4.900000E+01  0.000000E+00  0.000000E+00
 5.000000E+01  0.000000E+00  0.000000E+00
 0.000000E+00  1.000000E+00  0.000000E+00
 1.000000E+00  1.000000E+00  0.000000E+00
 2.000000E+00  1.000000E+00  0.000000E+00
 3.000000E+00  1.000000E+00  0.000000E+00
 4.000000E+00  1.000000E+00  0.000000E+00
 5.000000E+00  1.000000E+00  0.000000E+00
 6.000000E+00  1.000000E+00  0.000000E+00
 7.000000E+00  1.000000E+00  0.000000E+00
 8.000000E+00  1.000000E+00  0.000000E+00
 9.000000E+00  1.000000E+00  0.000000E+00
 1.000000E+01  1.000000E+00  0.000000E+00
 1.100000E+01  1.000000E+00  0.000000E+00
 1.200000E+01  1.000000E+00  0.000000E+00
 1.300000E+01  1.000000E+00  0.000000E+00
 1.400000E+01  1.000000E+00  0.000000E+00
 1.500000E+01  1.000000E+00  0.000000E+00
 1.600000E+01  1.000000E+00  0.000000E+00
 1.700000E+01  1.000000E+00  0.000000E+00
 1.800000E+01  1.000000E+00  0.000000E+00
 1.900000E+01  1.000000E+00  0.000000E+00
 2.000000E+01  1.000000E+00  0.000000E+00
 2.100000E+01  1.000000E+00  0.000000E+00
 2.200000E+01  1.000000E+00  0.000000E+00
 2.300000E+01  1.000000E+00  0.000000E+00
 2.400000E+01  1.000000E+00  0.000000E+00
 2.500000E+01  1.000000E+00  0.000000E+00
 2.600000E+01  1.000000E+00  0.000000E+00
 2.700000E+01  1.000000E+00  0.000000E+00
 2.800000E+01  1.000000E+00  0.000000E+00
 2.900000E+01  1.000000E+00  0.000000E+00
 3.000000E+01  1.000000E+00  0.000000E+00
 3.100000E+01  1.000000E+00  0.000000E+00
 3.200000E+01  1.000000E+00  0.000000E+00
 3.300000E+01  1.000000E+00  0.000000E+00
 3.400000E+01  1.000000E+00  0.000000E+00
 3.500000E+01  1.000000E+00  0.000000E+00
 3.600000E+01  1.000000E+00  0.000000E+00
 3.700000E+01  1.000000E+00  0.000000E+00
 3.800000E+01  1.000000E+00  0.000000E+00
 3.900000E+01  1.000000E+00  0.000000E+00
 4.000000E+01  1.000000E+00  0.000000E+00
 4.100000E+01  1.000000E+00  0.000000E+00
 4.200000E+01  1.000000E+00  0.000000E+00
 4.300000E+01  1.000000E+00  0.000000E+00
 4.400000E+01  1.000000E+00  0.000000E+00
 4.500000E+01  1.000000E+00  0.000000E+00
 4.600000E+01  1.000000E+00  0.000000E+00
 4.700000E+01  1.000000E+00  0.000000E+00
 4.800000E+01  1.000000E+00  0.000000E+00
 4.900000E+01  1.000000E+00  0.000000E+00
 5.000000E+01  1.000000E+00  0.000000E+00
 0.000000E+00  2.000000E+00  0.000000E+00
 1.000000E+00  2.000000E+00  0.000000E+00
 2.000000E+00  2.000000E+00  0.000000E+00
 3.000000E+00  2.000000E+00  0.000000E+00
 4.000000E+00  2.000000E+00  0.000000E+00
 5.000000E+00  2.000000E+00  0.000000E+00
 6.000000E+00  2.000000E+00  0.000000E+00
 7.000000E+00  2.000000E+00  0.000000E+00
 8.000000E+00  2.000000E+00  0.000000E+00
 9.000000E+00  2.000000E+00  0.000000E+00
 1.000000E+01  2.000000E+00  0.000000E+00
 1.100000E+01  2.000000E+00  0.000000E+00
 1.200000E+01  2.000000E+00  0.000000E+00
 1.300000E+01  2.000000E+00  0.000000E+00
 1.400000E+01  2.000000E+00  0.000000E+00
 1.500000E+01  2.000000E+00  0.000000E+00
 1.600000E+01  2.000000E+00  0.000000E+00
 1.700000E+01  2.000000E+00  0.000000E+00
 1.800000E+01  2.000000E+00  0.000000E+00
 1.900000E+01  2.000000E+00  0.000000E+00
 2.000000E+01  2.000000E+00  0.000000E+00
 2.100000E+01  2.000000E+00  0.000000E+00
 2.200000E+01  2.000000E+00  0.000000E+00
 2.300000E+01  2.000000E+00  0.000000E+00
 2.400000E+01  2.000000E+00  0.000000E+00
 2.500000E+01  2.000000E+00  0.000000E+00
 2.600000E+01  2.000000E+00  0.000000E+00
 2.700000E+01  2.000000E+00  0.000000E+00
 2.800000E+01  2.000000E+00  0.000000E+00
 2.900000E+01  2.000000E+00  0.000000E+00
 3.000000E+01  2.000000E+00  0.000000E+00
 3.100000E+01  2.000000E+00  0.000000E+00
 3.200000E+01  2.000000E+00  0.000000E+00
 3.300000E+01  2.000000E+00  0.000000E+00
 3.400000E+01  2.000000E+00  0.000000E+00
 3.500000E+01  2.000000E+00  0.000000E+00
 3.600000E+01  2.000000E+00  0.000000E+00
 3.700000E+01  2.000000E+00  0.000000E+00
 3.800000E+01  2.000000E+00  0.000000E+00
 3.900000E+01  2.000000E+00  0.000000E+00
 4.000000E+01  2.000000E+00  0.000000E+00
 4.100000E+01  2.000000E+00  0.000000E+00
 4.200000E+01  2.000000E+00  0.000000E+00
 4.300000E+01  2.000000E+00  0.000000E+00
 4.400000E+01  2.000000E+00  0.000000E+00
 4.500000E+01  2.000000E+00  0.000000E+00
 4.600000E+01  2.000000E+00  0.000000E+00
 4.700000E+01  2.000000E+00  0.000000E+00
 4.800000E+01  2.000000E+00  0.000000E+00
 4.900000E+01  2.000000E+00  0.000000E+00
 5.000000E+01  2.000000E+00  0.000000E+00
 0.000000E+00  3.000000E+00  0.000000E+00
 1.000000E+00  3.000000E+00  0.000000E+00
 2.000000E+00  3.000000E+00  0.000000E+00
 3.000000E+00  3.000000E+00  0.000000E+00
 4.000000E+00  3.000000E+00  0.000000E+00
 5.000000E+00  3.000000E+00  0.000000E+00
 6.000000E+00  3.000000E+00  0.000000E+00
 7.000000E+00  3.000000E+00  0.000000E+00
 8.000000E+00  3.000000E+00  0.000000E+00
 9.000000E+00  3.000000E+00  0.000000E+00
 1.000000E+01  3.000000E+00  0.000000E+00
 1.100000E+01  3.000000E+00  0.000000E+00
 1.200000E+01  3.000000E+00  0.000000E+00
 1.300000E+01  3.000000E+00  0.000000E+00
 1.400000E+01  3.000000E+00  0.000000E+00
 1.500000E+01  3.000000E+00  0.000000E+00
 1.600000E+01  3.000000E+00  0.000000E+00
 1.700000E+01  3.000000E+00  0.000000E+00
 1.800000E+01  3.000000E+00  0.000000E+00
 1.900000E+01  3.000000E+00  0.000000E+00
 2.000000E+01  3.000000E+00  0.000000E+00
 2.100000E+01  3.000000E+00  0.000000E+00
 2.200000E+01  3.000000E+00  0.000000E+00
 2.300000E+01  3.000000E+00  0.000000E+00
 2.400000E+01  3.000000E+00  0.000000E+00
 2.500000E+01  3.000000E+00  0.000000E+00
 2.600000E+01  3.000000E+00  0.000000E+00
 2.700000E+01  3.000000E+00  0.000000E+00
 2.800000E+01  3.000000E+00  0.000000E+00
 2.900000E+01  3.000000E+00  0.000000E+00
 3.000000E+01  3.000000E+00  0.000000E+00
 3.100000E+01  3.000000E+00  0.000000E+00
 3.200000E+01  3.000000E+00  0.000000E+00
 3.300000E+01  3.000000E+00  0.000000E+00
 3.400000E+01  3.000000E+00  0.000000E+00
 3.500000E+01  3.000000E+00  0.000000E+00
 3.600000E+01  3.000000E+00  0.000000E+00
 3.700000E+01  3.000000E+00  0.000000E+00
 3.800000E+01  3.000000E+00  0.000000E+00
 3.900000E+01  3.000000E+00  0.000000E+00
 4.000000E+01  3.000000E+00  0.000000E+00
 4.100000E+01  3.000000E+00  0.000000E+00
 4.200000E+01  3.000000E+00  0.000000E+00
 4.300000E+01  3.000000E+00  0.000000E+00
 4.400000E+01  3.000000E+00  0.000000E+00
 4.500000E+01  3.000000E+00  0.000000E+00
 4.600000E+01  3.000000E+00  0.000000E+00
 4.700000E+01  3.000000E+00  0.000000E+00
 4.800000E+01  3.000000E+00  0.000000E+00
 4.900000E+01  3.000000E+00  0.000000E+00
 5.000000E+01  3.000000E+00  0.000000E+00
 0.000000E+00  4.000000E+00  0.000000E+00
 1.000000E+00  4.000000E+00  0.000000E+00
 2.000000E+00  4.000000E+00  0.000000E+00
 3.000000E+00  4.000000E+00  0.000000E+00
 4.000000E+00  4.000000E+00  0.000000E+00
 5.000000E+00  4.000000E+00  0.000000E+00
 6.000000E+00  4.000000E+00  0.000000E+00
 7.000000E+00  4.000000E+00  0.000000E+00
 8.000000E+00  4.000000E+00  0.000000E+00
 9.000000E+00  4.000000E+00  0.000000E+00
 1.000000E+01  4.000000E+00  0.000000E+00
 1.100000E+01  4.000000E+00  0.000000E+00
 1.200000E+01  4.000000E+00  0.000000E+00
 1.300000E+01  4.000000E+00  0.000000E+00
 1.400000E+01  4.000000E+00  0.000000E+00
 1.500000E+01  4.000000E+00  0.000000E+00
 1.600000E+01  4.000000E+00  0.000000E+00
 1.700000E+01  4.000000E+00  0.000000E+00
 1.800000E+01  4.000000E+00  0.000000E+00
 1.900000E+01  4.000000E+00  0.000000E+00
 2.000000E+01  4.000000E+00  0.000000E+00
 2.100000E+01  4.000000E+00  0.000000E+00
 2.200000E+01  4.000000E+00  0.000000E+00
 2.300000E+01  4.000000E+00  0.000000E+00
 2.400000E+01  4.000000E+00  0.000000E+00
 2.500000E+01  4.000000E+00  0.000000E+00
 2.600000E+01  4.000000E+00  0.000000E+00
 2.700000E+01  4.000000E+00  0.000000E+00
 2.800000E+01  4.000000E+00  0.000000E+00
 2.900000E+01  4.000000E+00  0.000000E+00
 3.000000E+01  4.000000E+00  0.000000E+00
[...]
POINT_DATA         2601
 SCALARS measuredDisp11 float  1                   
LOOKUP_TABLE default
-8.79080E-02
-8.20850E-02
-7.64420E-02
-7.09640E-02
-6.56390E-02
-6.04600E-02
-5.54240E-02
-5.05340E-02
-4.57980E-02
-4.12280E-02
-3.68390E-02
-3.26510E-02
-2.86810E-02
-2.49500E-02
-2.14760E-02
-1.82730E-02
-1.53520E-02
-1.27170E-02
-1.03670E-02
-8.29000E-03
-6.46900E-03
-4.87600E-03
-3.47700E-03
-2.23000E-03
-1.08800E-03
 0.00000E+00
 1.08800E-03
 2.23000E-03
 3.47700E-03
 4.87600E-03
 6.46900E-03
 8.29000E-03
 1.03670E-02
 1.27170E-02
 1.53520E-02
 1.82730E-02
 2.14760E-02
 2.49500E-02
 2.86810E-02
 3.26510E-02
 3.68390E-02
 4.12280E-02
 4.57980E-02
 5.05340E-02
 5.54240E-02
 6.04600E-02
 6.56390E-02
 7.09640E-02
 7.64420E-02
 8.20850E-02
 8.79080E-02
-8.81060E-02
-8.22850E-02
-7.66440E-02
-7.11660E-02
-6.58400E-02
-6.06590E-02
-5.56190E-02
-5.07240E-02
-4.59810E-02
-4.14020E-02
-3.70040E-02
-3.28040E-02
-2.88230E-02
-2.50790E-02
-2.15920E-02
-1.83770E-02
-1.54430E-02
-1.27960E-02
-1.04340E-02
-8.34600E-03
-6.51400E-03
-4.91100E-03
-3.50300E-03
-2.24700E-03
-1.09700E-03
 0.00000E+00
 1.09700E-03
 2.24700E-03
 3.50300E-03
 4.91100E-03
 6.51400E-03
 8.34600E-03
 1.04340E-02
 1.27960E-02
 1.54430E-02
 1.83770E-02
 2.15920E-02
 2.50790E-02
 2.88230E-02
 3.28040E-02
 3.70040E-02
 4.14020E-02
 4.59810E-02
 5.07240E-02
 5.56190E-02
 6.06590E-02
 6.58400E-02
 7.11660E-02
 7.66440E-02
 8.22850E-02
 8.81060E-02
-8.86990E-02
-8.28850E-02
-7.72480E-02
-7.17720E-02
-6.64440E-02
-6.12560E-02
-5.62040E-02
-5.12930E-02
-4.65290E-02
-4.19250E-02
-3.74970E-02
-3.32650E-02
-2.92490E-02
-2.54690E-02
-2.19440E-02
-1.86900E-02
-1.57190E-02
-1.30350E-02
-1.06370E-02
-8.51500E-03
-6.65100E-03
-5.01900E-03
-3.58200E-03
-2.29900E-03
-1.12300E-03
 0.00000E+00
 1.12300E-03
 2.29900E-03
 3.58200E-03
 5.01900E-03
 6.65100E-03
 8.51500E-03
 1.06370E-02
 1.30350E-02
 1.57190E-02
 1.86900E-02
 2.19440E-02
 2.54690E-02
 2.92490E-02
 3.32650E-02
 3.74970E-02
 4.19250E-02
 4.65290E-02
 5.12930E-02
 5.62040E-02
 6.12560E-02
 6.64440E-02
 7.17720E-02
 7.72480E-02
 8.28850E-02
 8.86990E-02
-8.96870E-02
-8.38840E-02
-7.82560E-02
-7.27840E-02
-6.74520E-02
-6.22530E-02
-5.71820E-02
-5.22440E-02
-4.74460E-02
-4.28000E-02
-3.83250E-02
-3.40400E-02
-2.99660E-02
-2.61250E-02
-2.25380E-02
-1.92210E-02
-1.61880E-02
-1.34430E-02
-1.09860E-02
-8.80800E-03
-6.89000E-03
-5.20600E-03
-3.72000E-03
-2.39100E-03
-1.16800E-03
 0.00000E+00
 1.16800E-03
 2.39100E-03
 3.72000E-03
 5.20600E-03
 6.89000E-03
 8.80800E-03
 1.09860E-02
 1.34430E-02
 1.61880E-02
 1.92210E-02
 2.25380E-02
 2.61250E-02
 2.99660E-02
 3.40400E-02
 3.83250E-02
 4.28000E-02
 4.74460E-02
 5.22440E-02
 5.71820E-02
 6.22530E-02
 6.74520E-02
 7.27840E-02
 7.82560E-02
 8.38840E-02
 8.96870E-02
-9.10700E-02
-8.52840E-02
-7.96680E-02
-7.42010E-02
-6.88650E-02
-6.36520E-02
-5.85560E-02
-5.35820E-02
-4.87370E-02
-4.40350E-02
-3.94940E-02
-3.51360E-02
-3.09830E-02
-2.70600E-02
-2.33870E-02
-1.99850E-02
-1.68650E-02
-1.40360E-02
-1.14980E-02
-9.24000E-03
-7.24500E-03
-5.48700E-03
-3.93000E-03
-2.52900E-03
-1.23700E-03
 0.00000E+00
 1.23700E-03
 2.52900E-03
 3.93000E-03
 5.48700E-03
 7.24500E-03
 9.24000E-03
 1.14980E-02
 1.40360E-02
 1.68650E-02
 1.99850E-02
 2.33870E-02
 2.70600E-02
 3.09830E-02
 3.51360E-02
 3.94940E-02
 4.40350E-02
 4.87370E-02
 5.35820E-02
 5.85560E-02
 6.36520E-02
 6.88650E-02
 7.42010E-02
 7.96680E-02
 8.52840E-02
 9.10700E-02
-9.28450E-02
-8.70830E-02
-8.14850E-02
-7.60250E-02
-7.06860E-02
-6.54550E-02
-6.03290E-02
-5.53100E-02
-5.04080E-02
-4.56360E-02
-4.10140E-02
-3.65650E-02
-3.23150E-02
-2.82880E-02
-2.45100E-02
-2.10000E-02
-1.77740E-02
-1.48390E-02
-1.21960E-02
-9.83600E-03
-7.74100E-03
-5.88400E-03
-4.22700E-03
-2.72900E-03
-1.33700E-03
 0.00000E+00
 1.33700E-03
 2.72900E-03
 4.22700E-03
 5.88400E-03
 7.74100E-03
 9.83600E-03
 1.21960E-02
 1.48390E-02
 1.77740E-02
 2.10000E-02
 2.45100E-02
 2.82880E-02
 3.23150E-02
 3.65650E-02
 4.10140E-02
 4.56360E-02
 5.04080E-02
 5.53100E-02
 6.03290E-02
 6.54550E-02
 7.06860E-02
 7.60250E-02
 8.14850E-02
 8.70830E-02
 9.28450E-02
-9.50090E-02
-8.92790E-02
-8.37040E-02
-7.82560E-02
-7.29140E-02
-6.76650E-02
-6.25050E-02
-5.74350E-02
-5.24660E-02
-4.76130E-02
-4.28960E-02
-3.83420E-02
-3.39780E-02
-2.98310E-02
-2.59290E-02
-2.22940E-02
-1.89440E-02
-1.58850E-02
-1.31180E-02
-1.06340E-02
-8.41300E-03
-6.42800E-03
-4.64100E-03
-3.00800E-03
-1.47800E-03
 0.00000E+00
 1.47800E-03
 3.00800E-03
 4.64100E-03
 6.42800E-03
 8.41300E-03
 1.06340E-02
 1.31180E-02
 1.58850E-02
 1.89440E-02
 2.22940E-02
 2.59290E-02
 2.98310E-02
 3.39780E-02
 3.83420E-02
 4.28960E-02
 4.76130E-02
 5.24660E-02
 5.74350E-02
 6.25050E-02
 6.76650E-02
 7.29140E-02
 7.82560E-02
 8.37040E-02
 8.92790E-02
 9.50090E-02
-9.75560E-02
-9.18660E-02
-8.63220E-02
-8.08900E-02
-7.55480E-02
-7.02810E-02
-6.50840E-02
-5.99600E-02
-5.49180E-02
-4.99750E-02
-4.51540E-02
-4.04830E-02
-3.59920E-02
-3.17120E-02
-2.76740E-02
-2.39020E-02
-2.04150E-02
-1.72200E-02
-1.43140E-02
-1.16850E-02
-9.31200E-03
-7.16700E-03
-5.21100E-03
-3.39800E-03
-1.67700E-03
 0.00000E+00
 1.67700E-03
 3.39800E-03
 5.21100E-03
 7.16700E-03
 9.31200E-03
 1.16850E-02
 1.43140E-02
 1.72200E-02
 2.04150E-02
 2.39020E-02
 2.76740E-02
 3.17120E-02
 3.59920E-02
 4.04830E-02
 4.51540E-02
 4.99750E-02
 5.49180E-02
 5.99600E-02
 6.50840E-02
 7.02810E-02
 7.55480E-02
 8.08900E-02
 8.63220E-02
 9.18660E-02
 9.75560E-02
-1.00476E-01
-9.48370E-02
-8.93310E-02
-8.39210E-02
-7.85830E-02
-7.33000E-02
-6.80670E-02
-6.28870E-02
-5.77690E-02
-5.27320E-02
-4.78000E-02
-4.30050E-02
-3.83790E-02
-3.39590E-02
-2.97780E-02
-2.58650E-02
-2.22390E-02
-1.89030E-02
-1.58520E-02
-1.30630E-02
-1.05130E-02
-8.17000E-03
-5.99800E-03
-3.94600E-03
-1.96000E-03
 0.00000E+00
 1.96000E-03
 3.94600E-03
 5.99800E-03
 8.17000E-03
 1.05130E-02
 1.30630E-02
 1.58520E-02
 1.89030E-02
 2.22390E-02
 2.58650E-02
 2.97780E-02
 3.39590E-02
 3.83790E-02
 4.30050E-02
 4.78000E-02
 5.27320E-02
 5.77690E-02
 6.28870E-02
 6.80670E-02
 7.33000E-02
 7.85830E-02
 8.39210E-02
 8.93310E-02
 9.48370E-02
 1.00476E-01
-1.03753E-01
-9.81770E-02
-9.27190E-02
-8.73390E-02
-8.20100E-02
-7.67150E-02
-7.14490E-02
-6.62140E-02
-6.10210E-02
-5.58890E-02
-5.08460E-02
-4.59250E-02
-4.11640E-02
-3.66030E-02
-3.22820E-02
-2.82330E-02
-2.44750E-02
-2.10110E-02
-1.78230E-02
-1.48730E-02
-1.21230E-02
-9.54000E-03
-7.09200E-03
-4.72200E-03
-2.36700E-03
 0.00000E+00
 2.36700E-03
 4.72200E-03
 7.09200E-03
 9.54000E-03
 1.21230E-02
 1.48730E-02
 1.78230E-02
 2.10110E-02
 2.44750E-02
 2.82330E-02
 3.22820E-02
 3.66030E-02
 4.11640E-02
 4.59250E-02
 5.08460E-02
 5.58890E-02
 6.10210E-02
 6.62140E-02
 7.14490E-02
 7.67150E-02
 8.20100E-02
 8.73390E-02
 9.27190E-02
 9.81770E-02
 1.03753E-01
-1.07366E-01
-1.01867E-01
-9.64670E-02
-9.11250E-02
-8.58120E-02
-8.05130E-02
-7.52190E-02
-6.99340E-02
-6.46710E-02
-5.94500E-02
-5.43000E-02
-4.92590E-02
-4.43690E-02
-3.96760E-02
-3.52260E-02
-3.10580E-02
-2.71950E-02
-2.36360E-02
-2.03470E-02
-1.72610E-02
-1.43020E-02
-1.14300E-02
-8.62700E-03
-5.83500E-03
-2.96100E-03
 0.00000E+00
 2.96100E-03
 5.83500E-03
 8.62700E-03
 1.14300E-02
 1.43020E-02
 1.72610E-02
 2.03470E-02
 2.36360E-02
 2.71950E-02
 3.10580E-02
 3.52260E-02
 3.96760E-02
 4.43690E-02
 4.92590E-02
 5.43000E-02
 5.94500E-02
 6.46710E-02
 6.99340E-02
 7.52190E-02
 8.05130E-02
 8.58120E-02
 9.11250E-02
 9.64670E-02
 1.01867E-01
 1.07366E-01
-1.11286E-01
-1.05878E-01
-1.00548E-01
-9.52530E-02
-8.99670E-02
-8.46700E-02
-7.93580E-02
-7.40340E-02
-6.87110E-02
-6.34110E-02
-5.81660E-02
-5.30170E-02
-4.80130E-02
-4.32070E-02
-3.86540E-02
-3.44010E-02
-3.04780E-02
-2.68830E-02
-2.35620E-02
-2.04210E-02
-1.73060E-02
-1.40820E-02
-1.08130E-02
-7.43600E-03
-3.80700E-03
 0.00000E+00
 3.80700E-03
 7.43600E-03
 1.08130E-02
 1.40820E-02
 1.73060E-02
 2.04210E-02
 2.35620E-02
 2.68830E-02
 3.04780E-02
 3.44010E-02
 3.86540E-02
 4.32070E-02
 4.80130E-02
 5.30170E-02
 5.81660E-02
 6.34110E-02
 6.87110E-02
 7.40340E-02
 7.93580E-02
 8.46700E-02
 8.99670E-02
 9.52530E-02
 1.00548E-01
 1.05878E-01
 1.11286E-01
-1.15476E-01
-1.10173E-01
-1.04924E-01
-9.96880E-02
-9.44380E-02
-8.91560E-02
-8.38380E-02
-7.84880E-02
-7.31200E-02
-6.77570E-02
-6.24360E-02
-5.72010E-02
-5.21080E-02
-4.72220E-02
-4.26080E-02
-3.83210E-02
-3.44010E-02
-3.08670E-02
-2.76350E-02
-2.45270E-02
-2.14580E-02
-1.80790E-02
-1.40720E-02
-9.61400E-03
-4.84500E-03
 0.00000E+00
 4.84500E-03
 9.61400E-03
 1.40720E-02
 1.80790E-02
 2.14580E-02
 2.45270E-02
 2.76350E-02
 3.08670E-02
 3.44010E-02
 3.83210E-02
 4.26080E-02
 4.72220E-02
 5.21080E-02
 5.72010E-02
 6.24360E-02
 6.77570E-02
 7.31200E-02
 7.84880E-02
 8.38380E-02
 8.91560E-02
 9.44380E-02
 9.96880E-02
 1.04924E-01
 1.10173E-01
 1.15476E-01
-1.19886E-01
-1.14704E-01
-1.09549E-01
-1.04383E-01
-9.91810E-02
-9.39270E-02
-8.86190E-02
-8.32600E-02
-7.78660E-02
-7.24640E-02
-6.70900E-02
-6.17980E-02
-5.66520E-02
-5.17300E-02
-4.71160E-02
-4.28850E-02
-3.90710E-02
-3.56830E-02
-3.27480E-02
-2.98780E-02
-2.67130E-02
-2.33760E-02
-1.88150E-02
-1.22480E-02
-5.97200E-03
 0.00000E+00
 5.97200E-03
 1.22480E-02
 1.88150E-02
 2.33760E-02
 2.67130E-02
 2.98780E-02
 3.27480E-02
 3.56830E-02
 3.90710E-02
 4.28850E-02
 4.71160E-02
 5.17300E-02
 5.66520E-02
 6.17980E-02
 6.70900E-02
 7.24640E-02
 7.78660E-02
 8.32600E-02
 8.86190E-02
 9.39270E-02
 9.91810E-02
 1.04383E-01
 1.09549E-01
 1.14704E-01
 1.19886E-01
-1.24458E-01
-1.19411E-01
-1.14362E-01
-1.09277E-01
-1.04136E-01
-9.89270E-02
-9.36460E-02
-8.82990E-02
-8.29020E-02
-7.74850E-02
-7.20910E-02
-6.67780E-02
-6.16210E-02
-5.67160E-02
-5.21820E-02
-4.81300E-02
-4.46210E-02
-4.16060E-02
-3.89210E-02
-3.61990E-02
-3.24420E-02
-2.71180E-02
-2.10270E-02
-1.41520E-02
-7.03100E-03
 0.00000E+00
 7.03100E-03
 1.41520E-02
 2.10270E-02
 2.71180E-02
 3.24420E-02
 3.61990E-02
 3.89210E-02
 4.16060E-02
 4.46210E-02
 4.81300E-02
 5.21820E-02
 5.67160E-02
 6.16210E-02
 6.67780E-02
 7.20910E-02
 7.74850E-02
 8.29020E-02
 8.82990E-02
 9.36460E-02
 9.89270E-02
 1.04136E-01
 1.09277E-01
 1.14362E-01
 1.19411E-01
 1.24458E-01
-1.29121E-01
-1.24222E-01
-1.19289E-01
-1.14298E-01
-1.09232E-01
-1.04083E-01
-9.88490E-02
-9.35360E-02
-8.81620E-02
-8.27580E-02
-7.73740E-02
-7.20790E-02
-6.69600E-02
-6.21300E-02
-5.77480E-02
-5.40190E-02
-5.10650E-02
-4.86880E-02
-4.56410E-02
-4.10640E-02
-3.51400E-02
-2.78270E-02
-2.04700E-02
-1.38490E-02
-7.07300E-03
 0.00000E+00
 7.07300E-03
 1.38490E-02
 2.04700E-02
 2.78270E-02
 3.51400E-02
 4.10640E-02
 4.56410E-02
 4.86880E-02
 5.10650E-02
 5.40190E-02
 5.77480E-02
 6.21300E-02
 6.69600E-02
 7.20790E-02
 7.73740E-02
 8.27580E-02
 8.81620E-02
 9.35360E-02
 9.88490E-02
 1.04083E-01
 1.09232E-01
 1.14298E-01
 1.19289E-01
 1.24222E-01
 1.29121E-01
-1.33794E-01
-1.29053E-01
-1.24246E-01
-1.19358E-01
-1.14380E-01
-1.09309E-01
-1.04143E-01
-9.88890E-02
-9.35620E-02
-8.81950E-02
-8.28440E-02
-7.75960E-02
-7.25700E-02
-6.78780E-02
-6.37100E-02
-6.04070E-02
-5.80030E-02
-5.51320E-02
-5.00510E-02
-4.26160E-02
-3.48540E-02
-2.77060E-02
-2.06770E-02
-1.37660E-02
-6.93300E-03
 0.00000E+00
 6.93300E-03
 1.37660E-02
 2.06770E-02
 2.77060E-02
 3.48540E-02
 4.26160E-02
 5.00510E-02
 5.51320E-02
 5.80030E-02
 6.04070E-02
 6.37100E-02
 6.78780E-02
 7.25700E-02
 7.75960E-02
 8.28440E-02
 8.81950E-02
 9.35620E-02
 9.88890E-02
 1.04143E-01
 1.09309E-01
 1.14380E-01
 1.19358E-01
 1.24246E-01
 1.29053E-01
 1.33794E-01
-1.38384E-01
-1.33808E-01
-1.29133E-01
-1.24357E-01
-1.19481E-01
-1.14504E-01
-1.09428E-01
-1.04257E-01
-9.90010E-02
-9.36900E-02
-8.83820E-02
-8.31780E-02
-7.82400E-02
-7.38010E-02
-6.99430E-02
-6.69380E-02
-6.38300E-02
-5.82450E-02
-5.06380E-02
-4.30350E-02
-3.54330E-02
-2.79910E-02
-2.08440E-02
-1.38510E-02
-6.92000E-03
 0.00000E+00
 6.92000E-03
 1.38510E-02
 2.08440E-02
 2.79910E-02
 3.54330E-02
 4.30350E-02
 5.06380E-02
 5.82450E-02
 6.38300E-02
 6.69380E-02
 6.99430E-02
 7.38010E-02
 7.82400E-02
 8.31780E-02
 8.83820E-02
 9.36900E-02
 9.90010E-02
 1.04257E-01
 1.09428E-01
 1.14504E-01
 1.19481E-01
 1.24357E-01
 1.29133E-01
 1.33808E-01
 1.38384E-01
-1.42790E-01
-1.38381E-01
-1.33841E-01
-1.29183E-01
-1.24418E-01
-1.19552E-01
-1.14587E-01
-1.09523E-01
-1.04363E-01
-9.91230E-02
-9.38520E-02
-8.86630E-02
-8.37100E-02
-7.92930E-02
-7.56850E-02
-7.22600E-02
-6.66730E-02
-5.88530E-02
-5.10810E-02
-4.34330E-02
-3.58130E-02
-2.83510E-02
-2.10820E-02
-1.39810E-02
-6.97200E-03
 0.00000E+00
 6.97200E-03
 1.39810E-02
 2.10820E-02
 2.83510E-02
 3.58130E-02
 4.34330E-02
 5.10810E-02
 5.88530E-02
 6.66730E-02
 7.22600E-02
 7.56850E-02
 7.92930E-02
 8.37100E-02
 8.86630E-02
 9.38520E-02
 9.91230E-02
 1.04363E-01
 1.09523E-01
 1.14587E-01
 1.19552E-01
 1.24418E-01
 1.29183E-01
 1.33841E-01
 1.38381E-01
 1.42790E-01
-1.46906E-01
-1.42661E-01
-1.38255E-01
-1.33717E-01
-1.29070E-01
-1.24326E-01
-1.19489E-01
-1.14556E-01
-1.09519E-01
-1.04373E-01
-9.91300E-02
-9.38890E-02
-8.88960E-02
-8.42780E-02
-8.03780E-02
-7.54500E-02
-6.79030E-02
-5.95790E-02
-5.15940E-02
-4.37820E-02
-3.61310E-02
-2.86340E-02
-2.13070E-02
-1.41240E-02
-7.03900E-03
 0.00000E+00
 7.03900E-03
 1.41240E-02
 2.13070E-02
 2.86340E-02
 3.61310E-02
 4.37820E-02
 5.15940E-02
 5.95790E-02
 6.79030E-02
 7.54500E-02
 8.03780E-02
 8.42780E-02
 8.88960E-02
 9.38890E-02
 9.91300E-02
 1.04373E-01
 1.09519E-01
 1.14556E-01
 1.19489E-01
 1.24326E-01
 1.29070E-01
 1.33717E-01
 1.38255E-01
 1.42661E-01
 1.46906E-01
-1.50623E-01
-1.46533E-01
-1.42254E-01
-1.37832E-01
-1.33304E-01
-1.28687E-01
-1.23989E-01
-1.19206E-01
-1.14319E-01
-1.09301E-01
-1.04120E-01
-9.87500E-02
-9.34570E-02
-8.87220E-02
-8.38290E-02
-7.69370E-02
-6.85330E-02
-6.01030E-02
-5.19480E-02
-4.40590E-02
-3.63670E-02
-2.88470E-02
-2.14820E-02
-1.42450E-02
-7.10000E-03
 0.00000E+00
 7.10000E-03
 1.42450E-02
 2.14820E-02
 2.88470E-02
 3.63670E-02
 4.40590E-02
 5.19480E-02
 6.01030E-02
 6.85330E-02
 7.69370E-02
 8.38290E-02
 8.87220E-02
 9.34570E-02
 9.87500E-02
 1.04120E-01
 1.09301E-01
 1.14319E-01
 1.19206E-01
 1.23989E-01
 1.28687E-01
 1.33304E-01
 1.37832E-01
 1.42254E-01
 1.46533E-01
 1.50623E-01
-1.53837E-01
-1.49886E-01
-1.45720E-01
-1.41406E-01
-1.36989E-01
-1.32496E-01
-1.27937E-01
-1.23306E-01
-1.18580E-01
-1.13722E-01
-1.08672E-01
-1.03334E-01
-9.75910E-02
-9.22450E-02
-8.58960E-02
-7.71490E-02
-6.83920E-02
-6.01780E-02
-5.20950E-02
-4.42120E-02
-3.65180E-02
-2.89900E-02
-2.16050E-02
-1.43350E-02
-7.14700E-03
 0.00000E+00
 7.14700E-03
 1.43350E-02
 2.16050E-02
 2.89900E-02
 3.65180E-02
 4.42120E-02
 5.20950E-02
 6.01780E-02
 6.83920E-02
 7.71490E-02
 8.58960E-02
 9.22450E-02
 9.75910E-02
 1.03334E-01
 1.08672E-01
 1.13722E-01
 1.18580E-01
 1.23306E-01
 1.27937E-01
 1.32496E-01
 1.36989E-01
 1.41406E-01
 1.45720E-01
 1.49886E-01
 1.53837E-01
-1.56451E-01
-1.52615E-01
-1.48546E-01
-1.44324E-01
-1.40004E-01
-1.35619E-01
-1.31183E-01
-1.26687E-01
-1.22103E-01
-1.17382E-01
-1.12454E-01
-1.07210E-01
-1.01277E-01
-9.42560E-02
-8.57900E-02
-7.69250E-02
-6.83530E-02
-6.01130E-02
-5.21070E-02
-4.42680E-02
-3.65960E-02
-2.90740E-02
-2.16830E-02
-1.43940E-02
-7.17900E-03
 0.00000E+00
 7.17900E-03
 1.43940E-02
 2.16830E-02
 2.90740E-02
 3.65960E-02
 4.42680E-02
 5.21070E-02
 6.01130E-02
 6.83530E-02
 7.69250E-02
 8.57900E-02
 9.42560E-02
 1.01277E-01
 1.07210E-01
 1.12454E-01
 1.17382E-01
 1.22103E-01
 1.26687E-01
 1.31183E-01
 1.35619E-01
 1.40004E-01
 1.44324E-01
 1.48546E-01
 1.52615E-01
 1.56451E-01
-1.58382E-01
-1.54634E-01
-1.50637E-01
-1.46485E-01
-1.42240E-01
-1.37939E-01
-1.33597E-01
-1.29201E-01
-1.24709E-01
-1.20047E-01
-1.15093E-01
-1.09639E-01
-1.03211E-01
-9.48870E-02
-8.54060E-02
-7.65990E-02
-6.82840E-02
-6.00860E-02
-5.20890E-02
-4.42780E-02
-3.66270E-02
-2.91170E-02
-2.17260E-02
-1.44290E-02
-7.19800E-03
 0.00000E+00
 7.19800E-03
 1.44290E-02
 2.17260E-02
 2.91170E-02
 3.66270E-02
 4.42780E-02
 5.20890E-02
 6.00860E-02
 6.82840E-02
 7.65990E-02
 8.54060E-02
 9.48870E-02
 1.03211E-01
 1.09639E-01
 1.15093E-01
 1.20047E-01
 1.24709E-01
 1.29201E-01
 1.33597E-01
 1.37939E-01
 1.42240E-01
 1.46485E-01
 1.50637E-01
 1.54634E-01
 1.58382E-01
-1.59567E-01
-1.55873E-01
-1.51922E-01
-1.47813E-01
-1.43615E-01
-1.39368E-01
-1.35084E-01
-1.30744E-01
-1.26294E-01
-1.21620E-01
-1.16529E-01
-1.10703E-01
-1.03684E-01
-9.55470E-02
-8.64660E-02
-7.71600E-02
-6.84240E-02
-6.01160E-02
-5.20890E-02
-4.42780E-02
-3.66370E-02
-2.91350E-02
-2.17470E-02
-1.44470E-02
-7.20800E-03
 0.00000E+00
 7.20800E-03
 1.44470E-02
 2.17470E-02
 2.91350E-02
 3.66370E-02
 4.42780E-02
 5.20890E-02
 6.01160E-02
 6.84240E-02
 7.71600E-02
 8.64660E-02
 9.55470E-02
 1.03684E-01
 1.10703E-01
 1.16529E-01
 1.21620E-01
 1.26294E-01
 1.30744E-01
 1.35084E-01
 1.39368E-01
 1.43615E-01
 1.47813E-01
 1.51922E-01
 1.55873E-01
 1.59567E-01
-1.59967E-01
-1.56291E-01
-1.52355E-01
-1.48262E-01
-1.44080E-01
-1.39850E-01
-1.35585E-01
-1.31264E-01
-1.26823E-01
-1.22134E-01
-1.16969E-01
-1.10970E-01
-1.03842E-01
-9.57440E-02
-8.68240E-02
-7.74720E-02
-6.85450E-02
-6.01420E-02
-5.20920E-02
-4.42780E-02
-3.66390E-02
-2.91400E-02
-2.17530E-02
-1.44520E-02
-7.21100E-03
 0.00000E+00
 7.21100E-03
 1.44520E-02
 2.17530E-02
 2.91400E-02
 3.66390E-02
 4.42780E-02
 5.20920E-02
 6.01420E-02
 6.85450E-02
 7.74720E-02
 8.68240E-02
 9.57440E-02
 1.03842E-01
 1.10970E-01
 1.16969E-01
 1.22134E-01
 1.26823E-01
 1.31264E-01
 1.35585E-01
 1.39850E-01
 1.44080E-01
 1.48262E-01
 1.52355E-01
 1.56291E-01
 1.59967E-01
-1.59567E-01
-1.55873E-01
-1.51922E-01
-1.47813E-01
-1.43615E-01
-1.39368E-01
-1.35084E-01
-1.30744E-01
-1.26294E-01
-1.21620E-01
-1.16529E-01
-1.10703E-01
-1.03684E-01
-9.55470E-02
-8.64660E-02
-7.71600E-02
-6.84240E-02
-6.01160E-02
-5.20890E-02
-4.42780E-02
-3.66370E-02
-2.91350E-02
-2.17470E-02
-1.44470E-02
-7.20800E-03
 0.00000E+00
 7.20800E-03
 1.44470E-02
 2.17470E-02
 2.91350E-02
 3.66370E-02
 4.42780E-02
 5.20890E-02
 6.01160E-02
 6.84240E-02
 7.71600E-02
 8.64660E-02
 9.55470E-02
 1.03684E-01
 1.10703E-01
 1.16529E-01
 1.21620E-01
 1.26294E-01
 1.30744E-01
 1.35084E-01
 1.39368E-01
 1.43615E-01
 1.47813E-01
 1.51922E-01
 1.55873E-01
 1.59567E-01
-1.58382E-01
-1.54634E-01
-1.50637E-01
-1.46485E-01
-1.42240E-01
-1.37939E-01
-1.33597E-01
-1.29201E-01
-1.24709E-01
-1.20047E-01
-1.15093E-01
-1.09639E-01
-1.03211E-01
-9.48870E-02
-8.54060E-02
-7.65990E-02
-6.82840E-02
-6.00860E-02
-5.20890E-02
-4.42780E-02
-3.66270E-02
-2.91170E-02
-2.17260E-02
-1.44290E-02
-7.19800E-03
 0.00000E+00
 7.19800E-03
 1.44290E-02
 2.17260E-02
 2.91170E-02
 3.66270E-02
 4.42780E-02
 5.20890E-02
 6.00860E-02
 6.82840E-02
 7.65990E-02
 8.54060E-02
 9.48870E-02
 1.03211E-01
 1.09639E-01
 1.15093E-01
 1.20047E-01
 1.24709E-01
 1.29201E-01
 1.33597E-01
 1.37939E-01
 1.42240E-01
 1.46485E-01
 1.50637E-01
 1.54634E-01
 1.58382E-01
-1.56451E-01
-1.52615E-01
-1.48546E-01
-1.44324E-01
-1.40004E-01
-1.35619E-01
-1.31183E-01
-1.26687E-01
-1.22103E-01
-1.17382E-01
-1.12454E-01
-1.07210E-01
-1.01277E-01
-9.42560E-02
-8.57900E-02
-7.69250E-02
-6.83530E-02
-6.01130E-02
-5.21070E-02
-4.42680E-02
-3.65960E-02
-2.90740E-02
-2.16830E-02
-1.43940E-02
-7.17900E-03
 0.00000E+00
 7.17900E-03
 1.43940E-02
 2.16830E-02
 2.90740E-02
 3.65960E-02
 4.42680E-02
 5.21070E-02
 6.01130E-02
 6.83530E-02
 7.69250E-02
 8.57900E-02
 9.42560E-02
 1.01277E-01
 1.07210E-01
 1.12454E-01
 1.17382E-01
 1.22103E-01
 1.26687E-01
 1.31183E-01
 1.35619E-01
 1.40004E-01
 1.44324E-01
 1.48546E-01
 1.52615E-01
 1.56451E-01
-1.53837E-01
-1.49886E-01
-1.45720E-01
-1.41406E-01
-1.36989E-01
-1.32496E-01
-1.27937E-01
-1.23306E-01
-1.18580E-01
-1.13722E-01
-1.08672E-01
-1.03334E-01
-9.75910E-02
-9.22450E-02
-8.58960E-02
-7.71490E-02
-6.83920E-02
-6.01780E-02
-5.20950E-02
-4.42120E-02
-3.65180E-02
-2.89900E-02
-2.16050E-02
-1.43350E-02
-7.14700E-03
 0.00000E+00
 7.14700E-03
 1.43350E-02
 2.16050E-02
 2.89900E-02
 3.65180E-02
 4.42120E-02
 5.20950E-02
 6.01780E-02
 6.83920E-02
 7.71490E-02
 8.58960E-02
 9.22450E-02
 9.75910E-02
 1.03334E-01
 1.08672E-01
 1.13722E-01
 1.18580E-01
 1.23306E-01
 1.27937E-01
 1.32496E-01
 1.36989E-01
 1.41406E-01
 1.45720E-01
 1.49886E-01
 1.53837E-01
-1.50623E-01