# vtk DataFile Version 2.0
Output of NLACE
ASCII
DATASET UNSTRUCTURED_GRID
POINTS         3120 FLOAT
 1.972100E-01 -9.337178E+00 -1.349336E+01
 1.773206E+00 -9.340790E+00 -1.349290E+01
 3.349202E+00 -9.344402E+00 -1.349243E+01
 4.925198E+00 -9.348014E+00 -1.349197E+01
 6.501194E+00 -9.351626E+00 -1.349151E+01
 8.077190E+00 -9.355238E+00 -1.349104E+01
 9.653186E+00 -9.358850E+00 -1.349058E+01
 1.122918E+01 -9.362462E+00 -1.349011E+01
 1.280518E+01 -9.366074E+00 -1.348965E+01
 1.438117E+01 -9.369686E+00 -1.348919E+01
 1.595717E+01 -9.373298E+00 -1.348872E+01
 1.753317E+01 -9.376910E+00 -1.348826E+01
 1.910916E+01 -9.380522E+00 -1.348779E+01
 2.068516E+01 -9.384134E+00 -1.348733E+01
 2.226115E+01 -9.387746E+00 -1.348687E+01
 2.383715E+01 -9.391358E+00 -1.348640E+01
 1.936540E-01 -1.091852E+01 -1.373697E+01
 1.769650E+00 -1.092213E+01 -1.373650E+01
 3.345646E+00 -1.092575E+01 -1.373604E+01
 4.921642E+00 -1.092936E+01 -1.373558E+01
 6.497638E+00 -1.093297E+01 -1.373511E+01
 8.073634E+00 -1.093658E+01 -1.373465E+01
 9.649630E+00 -1.094019E+01 -1.373418E+01
 1.122563E+01 -1.094381E+01 -1.373372E+01
 1.280162E+01 -1.094742E+01 -1.373325E+01
 1.437762E+01 -1.095103E+01 -1.373279E+01
 1.595361E+01 -1.095464E+01 -1.373233E+01
 1.752961E+01 -1.095825E+01 -1.373186E+01
 1.910561E+01 -1.096187E+01 -1.373140E+01
 2.068160E+01 -1.096548E+01 -1.373094E+01
 2.225760E+01 -1.096909E+01 -1.373047E+01
 2.383359E+01 -1.097270E+01 -1.373001E+01
 1.900980E-01 -1.249987E+01 -1.398057E+01
 1.766094E+00 -1.250348E+01 -1.398011E+01
 3.342090E+00 -1.250709E+01 -1.397964E+01
 4.918086E+00 -1.251070E+01 -1.397918E+01
 6.494082E+00 -1.251431E+01 -1.397871E+01
 8.070078E+00 -1.251793E+01 -1.397825E+01
 9.646074E+00 -1.252154E+01 -1.397779E+01
 1.122207E+01 -1.252515E+01 -1.397732E+01
 1.279807E+01 -1.252876E+01 -1.397686E+01
 1.437406E+01 -1.253237E+01 -1.397640E+01
 1.595006E+01 -1.253599E+01 -1.397593E+01
 1.752605E+01 -1.253960E+01 -1.397547E+01
 1.910205E+01 -1.254321E+01 -1.397500E+01
 2.067805E+01 -1.254682E+01 -1.397454E+01
 2.225404E+01 -1.255043E+01 -1.397407E+01
 2.383004E+01 -1.255405E+01 -1.397361E+01
 1.865420E-01 -1.408121E+01 -1.422417E+01
 1.762538E+00 -1.408482E+01 -1.422371E+01
 3.338534E+00 -1.408843E+01 -1.422325E+01
 4.914530E+00 -1.409205E+01 -1.422278E+01
 6.490526E+00 -1.409566E+01 -1.422232E+01
 8.066522E+00 -1.409927E+01 -1.422185E+01
 9.642518E+00 -1.410288E+01 -1.422139E+01
 1.121851E+01 -1.410649E+01 -1.422093E+01
 1.279451E+01 -1.411011E+01 -1.422046E+01
 1.437051E+01 -1.411372E+01 -1.422000E+01
 1.594650E+01 -1.411733E+01 -1.421953E+01
 1.752250E+01 -1.412094E+01 -1.421907E+01
 1.909849E+01 -1.412455E+01 -1.421861E+01
 2.067449E+01 -1.412817E+01 -1.421814E+01
 2.225049E+01 -1.413178E+01 -1.421768E+01
 2.382648E+01 -1.413539E+01 -1.421721E+01
 1.829860E-01 -1.566255E+01 -1.446778E+01
 1.758982E+00 -1.566617E+01 -1.446731E+01
 3.334978E+00 -1.566978E+01 -1.446685E+01
 4.910974E+00 -1.567339E+01 -1.446639E+01
 6.486970E+00 -1.567700E+01 -1.446592E+01
 8.062966E+00 -1.568061E+01 -1.446546E+01
 9.638962E+00 -1.568423E+01 -1.446499E+01
 1.121496E+01 -1.568784E+01 -1.446453E+01
 1.279095E+01 -1.569145E+01 -1.446407E+01
 1.436695E+01 -1.569506E+01 -1.446360E+01
 1.594295E+01 -1.569867E+01 -1.446314E+01
 1.751894E+01 -1.570229E+01 -1.446268E+01
 1.909494E+01 -1.570590E+01 -1.446221E+01
 2.067093E+01 -1.570951E+01 -1.446175E+01
 2.224693E+01 -1.571312E+01 -1.446128E+01
 2.382293E+01 -1.571673E+01 -1.446082E+01
 1.794300E-01 -1.724390E+01 -1.471138E+01
 1.755426E+00 -1.724751E+01 -1.471092E+01
 3.331422E+00 -1.725112E+01 -1.471045E+01
 4.907418E+00 -1.725473E+01 -1.470999E+01
 6.483414E+00 -1.725835E+01 -1.470953E+01
 8.059410E+00 -1.726196E+01 -1.470906E+01
 9.635406E+00 -1.726557E+01 -1.470860E+01
 1.121140E+01 -1.726918E+01 -1.470814E+01
 1.278740E+01 -1.727279E+01 -1.470767E+01
 1.436339E+01 -1.727641E+01 -1.470721E+01
 1.593939E+01 -1.728002E+01 -1.470674E+01
 1.751539E+01 -1.728363E+01 -1.470628E+01
 1.909138E+01 -1.728724E+01 -1.470581E+01
 2.066738E+01 -1.729085E+01 -1.470535E+01
 2.224337E+01 -1.729447E+01 -1.470489E+01
 2.381937E+01 -1.729808E+01 -1.470442E+01
 1.758740E-01 -1.882524E+01 -1.495499E+01
 1.751870E+00 -1.882885E+01 -1.495452E+01
 3.327866E+00 -1.883247E+01 -1.495406E+01
 4.903862E+00 -1.883608E+01 -1.495359E+01
 6.479858E+00 -1.883969E+01 -1.495313E+01
 8.055854E+00 -1.884330E+01 -1.495267E+01
 9.631850E+00 -1.884691E+01 -1.495220E+01
 1.120785E+01 -1.885053E+01 -1.495174E+01
 1.278384E+01 -1.885414E+01 -1.495127E+01
 1.435984E+01 -1.885775E+01 -1.495081E+01
 1.593583E+01 -1.886136E+01 -1.495035E+01
 1.751183E+01 -1.886497E+01 -1.494988E+01
 1.908783E+01 -1.886859E+01 -1.494942E+01
 2.066382E+01 -1.887220E+01 -1.494895E+01
 2.223982E+01 -1.887581E+01 -1.494849E+01
 2.381581E+01 -1.887942E+01 -1.494803E+01
 1.723180E-01 -2.040659E+01 -1.519859E+01
 1.748314E+00 -2.041020E+01 -1.519813E+01
 3.324310E+00 -2.041381E+01 -1.519766E+01
 4.900306E+00 -2.041742E+01 -1.519720E+01
 6.476302E+00 -2.042103E+01 -1.519673E+01
 8.052298E+00 -2.042465E+01 -1.519627E+01
 9.628294E+00 -2.042826E+01 -1.519581E+01
 1.120429E+01 -2.043187E+01 -1.519534E+01
 1.278029E+01 -2.043548E+01 -1.519488E+01
 1.435628E+01 -2.043909E+01 -1.519441E+01
 1.593228E+01 -2.044271E+01 -1.519395E+01
 1.750827E+01 -2.044632E+01 -1.519349E+01
 1.908427E+01 -2.044993E+01 -1.519302E+01
 2.066027E+01 -2.045354E+01 -1.519256E+01
 2.223626E+01 -2.045715E+01 -1.519209E+01
 2.381226E+01 -2.046077E+01 -1.519163E+01
 1.687620E-01 -2.198793E+01 -1.544219E+01
 1.744758E+00 -2.199154E+01 -1.544173E+01
 3.320754E+00 -2.199515E+01 -1.544127E+01
 4.896750E+00 -2.199877E+01 -1.544080E+01
 6.472746E+00 -2.200238E+01 -1.544034E+01
 8.048742E+00 -2.200599E+01 -1.543988E+01
 9.624738E+00 -2.200960E+01 -1.543941E+01
 1.120073E+01 -2.201321E+01 -1.543895E+01
 1.277673E+01 -2.201683E+01 -1.543848E+01
 1.435273E+01 -2.202044E+01 -1.543802E+01
 1.592872E+01 -2.202405E+01 -1.543755E+01
 1.750472E+01 -2.202766E+01 -1.543709E+01
 1.908071E+01 -2.203127E+01 -1.543663E+01
 2.065671E+01 -2.203489E+01 -1.543616E+01
 2.223271E+01 -2.203850E+01 -1.543570E+01
 2.380870E+01 -2.204211E+01 -1.543523E+01
 1.652060E-01 -2.356927E+01 -1.568580E+01
 1.741202E+00 -2.357289E+01 -1.568534E+01
 3.317198E+00 -2.357650E+01 -1.568487E+01
 4.893194E+00 -2.358011E+01 -1.568441E+01
 6.469190E+00 -2.358372E+01 -1.568394E+01
 8.045186E+00 -2.358733E+01 -1.568348E+01
 9.621182E+00 -2.359095E+01 -1.568301E+01
 1.119718E+01 -2.359456E+01 -1.568255E+01
 1.277317E+01 -2.359817E+01 -1.568209E+01
 1.434917E+01 -2.360178E+01 -1.568162E+01
 1.592517E+01 -2.360539E+01 -1.568116E+01
 1.750116E+01 -2.360901E+01 -1.568070E+01
 1.907716E+01 -2.361262E+01 -1.568023E+01
 2.065315E+01 -2.361623E+01 -1.567977E+01
 2.222915E+01 -2.361984E+01 -1.567930E+01
 2.380515E+01 -2.362345E+01 -1.567884E+01
 1.616500E-01 -2.515062E+01 -1.592940E+01
 1.737646E+00 -2.515423E+01 -1.592894E+01
 3.313642E+00 -2.515784E+01 -1.592847E+01
 4.889638E+00 -2.516145E+01 -1.592801E+01
 6.465634E+00 -2.516507E+01 -1.592755E+01
 8.041630E+00 -2.516868E+01 -1.592708E+01
 9.617626E+00 -2.517229E+01 -1.592662E+01
 1.119362E+01 -2.517590E+01 -1.592615E+01
 1.276962E+01 -2.517951E+01 -1.592569E+01
 1.434561E+01 -2.518313E+01 -1.592523E+01
 1.592161E+01 -2.518674E+01 -1.592476E+01
 1.749761E+01 -2.519035E+01 -1.592430E+01
 1.907360E+01 -2.519396E+01 -1.592383E+01
 2.064960E+01 -2.519757E+01 -1.592337E+01
 2.222559E+01 -2.520119E+01 -1.592291E+01
 2.380159E+01 -2.520480E+01 -1.592244E+01
 1.580940E-01 -2.673196E+01 -1.617301E+01
 1.734090E+00 -2.673557E+01 -1.617254E+01
 3.310086E+00 -2.673919E+01 -1.617208E+01
 4.886082E+00 -2.674280E+01 -1.617161E+01
 6.462078E+00 -2.674641E+01 -1.617115E+01
 8.038074E+00 -2.675002E+01 -1.617069E+01
 9.614070E+00 -2.675363E+01 -1.617022E+01
 1.119007E+01 -2.675725E+01 -1.616976E+01
 1.276606E+01 -2.676086E+01 -1.616929E+01
 1.434206E+01 -2.676447E+01 -1.616883E+01
 1.591805E+01 -2.676808E+01 -1.616837E+01
 1.749405E+01 -2.677169E+01 -1.616790E+01
 1.907005E+01 -2.677531E+01 -1.616744E+01
 2.064604E+01 -2.677892E+01 -1.616698E+01
 2.222204E+01 -2.678253E+01 -1.616651E+01
 2.379803E+01 -2.678614E+01 -1.616605E+01
 1.545380E-01 -2.831331E+01 -1.641661E+01
 1.730534E+00 -2.831692E+01 -1.641615E+01
 3.306530E+00 -2.832053E+01 -1.641568E+01
 4.882526E+00 -2.832414E+01 -1.641522E+01
 6.458522E+00 -2.832775E+01 -1.641475E+01
 8.034518E+00 -2.833137E+01 -1.641429E+01
 9.610514E+00 -2.833498E+01 -1.641383E+01
 1.118651E+01 -2.833859E+01 -1.641336E+01
 1.276251E+01 -2.834220E+01 -1.641290E+01
 1.433850E+01 -2.834581E+01 -1.641243E+01
 1.591450E+01 -2.834943E+01 -1.641197E+01
 1.749049E+01 -2.835304E+01 -1.641151E+01
 1.906649E+01 -2.835665E+01 -1.641104E+01
 2.064249E+01 -2.836026E+01 -1.641058E+01
 2.221848E+01 -2.836387E+01 -1.641011E+01
 2.379448E+01 -2.836749E+01 -1.640965E+01
 2.232970E-01 -9.597983E+00 -1.170574E+01
 1.799293E+00 -9.601119E+00 -1.170521E+01
 3.375289E+00 -9.604255E+00 -1.170468E+01
 4.951285E+00 -9.607391E+00 -1.170414E+01
 6.527281E+00 -9.610527E+00 -1.170361E+01
 8.103277E+00 -9.613663E+00 -1.170308E+01
 9.679273E+00 -9.616799E+00 -1.170255E+01
 1.125527E+01 -9.619935E+00 -1.170202E+01
 1.283127E+01 -9.623071E+00 -1.170148E+01
 1.440726E+01 -9.626207E+00 -1.170095E+01
 1.598326E+01 -9.629343E+00 -1.170042E+01
 1.755925E+01 -9.632479E+00 -1.169989E+01
 1.913525E+01 -9.635615E+00 -1.169936E+01
 2.071124E+01 -9.638751E+00 -1.169882E+01
 2.228724E+01 -9.641887E+00 -1.169829E+01
 2.386324E+01 -9.645023E+00 -1.169776E+01
 2.202130E-01 -1.118396E+01 -1.191705E+01
 1.796209E+00 -1.118710E+01 -1.191652E+01
 3.372205E+00 -1.119023E+01 -1.191599E+01
 4.948201E+00 -1.119337E+01 -1.191546E+01
 6.524197E+00 -1.119651E+01 -1.191492E+01
 8.100193E+00 -1.119964E+01 -1.191439E+01
 9.676189E+00 -1.120278E+01 -1.191386E+01
 1.125219E+01 -1.120591E+01 -1.191333E+01
 1.282818E+01 -1.120905E+01 -1.191280E+01
 1.440418E+01 -1.121219E+01 -1.191226E+01
 1.598017E+01 -1.121532E+01 -1.191173E+01
[...]
POINT_DATA         3120
 SCALARS measuredDisp11 float  1                   
LOOKUP_TABLE default
-2.30620E-01
-2.87870E-02
-3.93779E-01
-2.86740E-02
-1.30065E-01
 1.50229E-01
 2.36116E-01
 3.58307E-01
 1.81870E-02
 6.93900E-02
-3.82287E-01
 2.01904E-01
 1.84180E-02
 1.25947E-01
 3.80582E-01
-4.54900E-03
-1.26748E-01
 2.10500E-03
 1.71030E-02
-3.23253E-01
-4.80270E-02
 7.97020E-02
 2.24200E-03
-4.68000E-03
 1.60780E-02
 4.54890E-02
 6.88970E-02
 5.15990E-02
 1.22792E-01
 1.50992E-01
 1.84440E-02
-1.92390E-01
 4.87000E-04
-1.08135E-01
-1.36216E-01
-2.97330E-02
-1.87490E-02
-1.54399E-01
-3.21710E-02
-6.46000E-03
-4.89600E-03
 8.79100E-03
 2.30140E-02
 6.05010E-02
 7.54100E-03
 1.45200E-02
 3.10070E-02
-1.04057E-01
-2.84040E-02
 5.37790E-02
-3.32064E-01
-2.28490E-02
-4.78330E-02
 2.68230E-02
-4.65050E-02
-1.63490E-02
 4.65910E-02
 3.50600E-03
 7.15700E-03
 7.00270E-02
-5.26890E-02
-1.75230E-01
 4.57300E-02
-1.27470E-02
-3.88000E-04
-2.83030E-02
-4.40260E-02
-9.70700E-03
-1.11370E-02
-1.37340E-02
 1.74977E-01
-6.20300E-03
-2.63590E-02
 1.40400E-03
 6.91000E-04
 1.33260E-02
 5.82180E-02
-2.05410E-02
 1.09729E-01
 1.21443E-01
-1.33358E-01
-2.87650E-02
-1.00254E-01
-5.70650E-02
-8.89700E-03
-5.42850E-02
 9.26100E-03
-1.46620E-02
 2.36700E-03
 3.03470E-02
 4.05220E-02
 1.67820E-02
 1.14170E-02
-2.55280E-02
 5.88240E-02
 2.33760E-02
-4.83000E-04
 1.29270E-02
-4.55760E-02
-1.09650E-02
-1.87860E-02
 1.78060E-02
-7.39500E-03
 5.48170E-02
 1.11670E-02
 3.51030E-02
-5.58010E-02
 4.12720E-02
 1.01360E-02
 4.74000E-03
-9.55000E-03
 1.52210E-02
-8.52030E-02
 5.35600E-03
-5.29260E-02
-1.47800E-02
-3.20460E-02
-1.77515E-01
 1.64042E-01
 4.12520E-02
-9.62600E-03
 1.56420E-02
 1.78720E-02
-4.58000E-04
-1.32400E-03
 6.52900E-03
-4.73200E-03
-5.83800E-02
 1.16540E-02
 8.78900E-03
 1.93950E-02
 1.50550E-02
 2.77800E-03
-5.72500E-02
 2.72970E-02
-1.10392E-01
 5.13960E-02
 1.66460E-02
-2.32220E-02
 4.57400E-03
-1.81300E-02
 9.26970E-02
 5.24200E-02
 8.08870E-02
-1.63931E-01
 4.09570E-02
-1.83650E-02
-1.27440E-02
 5.18600E-03
-3.43680E-02
-2.85420E-02
-5.89100E-03
 2.17540E-02
 4.56300E-03
-4.28090E-02
 2.33120E-02
-5.89800E-03
 1.22190E-02
 4.61970E-02
 7.39750E-02
-1.13050E-02
-4.34620E-02
-3.02010E-02
 4.36640E-02
-3.44460E-02
-8.29190E-02
 1.00060E-02
-5.03840E-02
 7.73400E-03
 2.83280E-02
-3.67710E-02
 1.77100E-03
 1.31937E-01
-4.11240E-02
 1.20190E-01
 7.09150E-02
-1.72270E-02
-1.28898E-01
-5.71770E-02
-2.52900E-03
-4.11800E-03
-2.94230E-02
-3.31360E-02
 5.74100E-03
 1.78280E-02
 1.22580E-02
-2.05800E-03
-1.44040E-02
 1.02130E-02
-1.91680E-02
 2.45460E-02
 1.64972E-01
-3.48700E-03
-2.23400E-02
 3.68630E-02
 2.18850E-02
-6.99440E-02
-3.75450E-02
-9.76400E-03
-5.48140E-02
-7.03000E-04
-1.93270E-02
 6.14070E-02
 8.52070E-02
-1.07677E-01
 4.61550E-02
 4.10180E-02
-6.22390E-02
-2.04459E-01
-3.81960E-02
-6.03430E-02
-1.81390E-02
-6.51290E-02
-6.42920E-02
 1.51404E-01
-2.87700E-02
 1.70965E-01
 2.17460E-02
 2.79960E-02
-4.30160E-02
 1.35970E-02
 1.78350E-02
 6.09100E-03
 1.57000E-03
-7.46600E-03
-1.80450E-02
-6.21400E-03
-3.22490E-02
-5.73570E-02
-5.29130E-02
-4.73920E-02
 2.28550E-02
-4.28000E-03
-1.67460E-02
 6.62200E-02
 2.41700E-03
 8.28080E-02
 1.31980E-02
 2.30910E-02
-4.52330E-02
-1.11500E-03
-4.50480E-02
-1.02685E-01
 1.32950E-02
-1.01250E-02
-1.18610E-02
 1.13080E-02
-1.29420E-02
-3.66000E-04
 1.23800E-02
 1.63310E-02
 3.12190E-02
 6.68210E-02
 3.98500E-02
 6.77300E-02
 1.20510E-02
-8.09730E-02
-5.24230E-02
-3.04000E-02
-2.68190E-02
-2.43110E-02
-6.61280E-02
 4.44300E-02
-2.91020E-02
 6.58670E-02
 6.11300E-03
 4.31610E-02
 5.63800E-03
 2.82300E-03
-1.64980E-02
 3.71540E-02
 4.92720E-02
-8.61970E-02
-5.62690E-02
-3.60180E-02
 7.06250E-02
-5.56810E-02
-6.35120E-02
-6.87200E-03
 1.96900E-03
 1.28440E-02
 1.32762E-01
 9.64800E-03
-6.28700E-03
-3.20900E-03
 4.16050E-02
 3.49200E-02
 6.18300E-03
-1.59215E-01
-6.32740E-02
-1.98800E-03
-8.15630E-02
-1.81150E-02
 6.22400E-03
 4.47400E-03
-3.10030E-02
 1.94550E-02
-2.16450E-02
-7.88900E-03
 3.60710E-02
 3.95790E-02
 1.39050E-02
-1.34700E-03
 9.32900E-02
-8.78230E-02
-7.89000E-03
-3.45960E-02
-1.08130E-02
-3.88930E-02
 1.60990E-02
-3.26550E-02
 3.47970E-02
 5.08200E-03
-2.43310E-02
-8.22500E-03
-1.25340E-02
 7.05000E-03
 5.30190E-02
 1.02660E-02
 5.53180E-02
-2.46220E-02
-3.42140E-02
-2.37870E-02
-2.26770E-02
-4.75710E-02
-1.34130E-02
 4.57500E-02
 8.12950E-02
 4.84900E-03
 3.80730E-02
 1.38053E-01
 1.63930E-02
 1.66000E-03
-7.73300E-03
 4.07670E-02
-1.18790E-02
-1.72036E-01
-2.77060E-02
-4.66400E-03
 1.41800E-03
 2.99300E-03
-2.74000E-03
 1.00680E-02
-5.34270E-02
-4.84700E-03
-7.99800E-03
 5.38500E-03
 1.33000E-02
 2.35920E-02
-4.29000E-03
 6.52850E-02
-2.84020E-02
-6.36000E-03
-1.26540E-02
-1.87600E-03
-2.93960E-02
-2.70230E-02
 3.77250E-02
-1.48103E-01
-1.10510E-02
 5.75500E-03
-3.37040E-02
 1.57130E-02
-2.65700E-03
-1.10030E-02
 9.30000E-03
 1.46360E-02
 6.43810E-02
-1.44315E-01
-7.41600E-03
-1.63610E-02
-1.42000E-03
-7.59500E-02
-5.32350E-02
 1.33921E-01
 6.41800E-03
-4.77480E-02
 2.59890E-02
 1.01890E-02
-2.49940E-02
-1.39900E-03
-5.39200E-03
-2.47000E-04
 8.83980E-02
-1.93780E-01
-5.95070E-02
-2.53300E-02
-7.19990E-02
-8.08500E-03
 6.13580E-02
 6.70440E-02
 4.76940E-02
-1.00410E-02
-4.48700E-03
 8.78200E-03
 4.17300E-02
 1.78020E-02
 4.18300E-03
 7.66700E-03
 2.75115E-01
-2.12055E-01
 3.86140E-02
-1.43350E-02
 2.76900E-03
 4.99600E-03
-5.58430E-02
-3.17000E-03
-2.05460E-02
 1.57480E-02
 1.62800E-02
-3.31360E-02
 1.17250E-02
-6.26600E-03
-2.87000E-03
 9.43600E-03
 1.61048E-01
-1.94501E-01
-1.64835E-01
-1.88992E-01
-4.37400E-02
 7.31400E-03
-5.57820E-02
-3.90136E-01
 1.97900E-03
-4.48660E-02
 1.96476E-01
-3.61500E-03
 5.69400E-03
 1.08670E-02
-4.87970E-02
 3.34460E-01
 1.60230E-02
-1.83710E-02
 1.46771E-01
-7.89760E-02
-1.04100E-03
 8.67400E-03
 1.76120E-02
 6.79900E-03
 3.03020E-02
 2.65610E-02
-2.22950E-02
 3.03640E-02
 7.53020E-02
-2.77295E-01
 6.33220E-02
-3.11240E-02
 6.03340E-02
-1.50980E-02
-5.53970E-02
-1.89900E-02
-4.88460E-02
-3.47600E-03
-3.23500E-02
-1.61705E-01
-1.56820E-01
-3.72430E-02
 2.46050E-02
-7.59000E-04
 1.62780E-02
 9.16000E-03
 7.59300E-03
-7.43600E-03
 6.46900E-02
-1.55416E-01
-2.65440E-02
-4.08890E-02
-9.46310E-02
-7.58830E-02
 3.98920E-02
-2.76400E-02
-1.26071E-01
-1.30560E-02
 6.46480E-02
-2.52270E-02
 4.80400E-02
 5.44470E-02
 7.96200E-03
 4.30300E-02
 2.06140E-02
-1.31457E-01
-6.82530E-02
-4.17640E-02
-3.38700E-02
 7.25600E-03
-3.88240E-02
-2.33460E-02
-3.72030E-02
 2.02600E-03
-1.93800E-02
 1.87030E-02
 1.08000E-03
 1.91600E-02
-4.47390E-02
 7.12220E-02
 3.24170E-02
-1.29557E-01
-2.93510E-02
-1.72430E-02
-3.12550E-02
-4.31000E-02
-1.75940E-02
-3.67440E-02
-5.42000E-04
-2.67710E-02
-4.18400E-03
 2.84000E-04
-5.20200E-03
 4.32040E-02
 2.27000E-02
 7.28100E-02
 1.02678E-01
-1.64140E-02
-3.17960E-02
-3.03010E-02
-4.19700E-02
-4.30890E-02
-5.01510E-02
-4.07960E-02
-5.41250E-02
 4.27880E-02
 2.23120E-02
 1.28570E-02
-3.44600E-03
 1.47840E-02
 2.38880E-02
-3.00510E-02
-5.38160E-02
-1.88386E-01
-1.65450E-02
-2.78390E-02
-5.01950E-02
 3.10250E-02
 3.29310E-01
-4.52870E-02
-1.14302E-01
-8.71890E-02
 4.85780E-02
 2.98342E-01
 2.36797E-01
-8.77800E-03
-1.70780E-02
 1.28078E-01
 4.41130E-02
-1.49269E-01
-4.19360E-02
-1.44580E-02
-1.57300E-03
 1.10800E-03
-6.92500E-03
-6.68400E-03
 3.39500E-03
-2.29780E-02
-3.42550E-02
-1.74470E-02
-2.14940E-02
-3.94100E-03
 1.36650E-02
-2.50820E-02
 1.19626E-01
-3.49610E-02
-3.16040E-02
-1.82310E-02
 1.20000E-03
 6.19600E-03
 3.93150E-02
 3.23600E-03
-1.48430E-02
-8.30220E-02
-3.26060E-02
-1.50000E-03
 1.73440E-02
-2.81630E-02
 3.63500E-03
-2.65910E-02
 1.81010E-02
-1.09732E-01
-2.44260E-02
-1.48510E-02
-1.10270E-02
-3.62780E-02
 7.43900E-03
-1.93170E-02
 4.32500E-03
-5.53370E-02
-7.02090E-02
-1.91400E-02
 4.80900E-03
-2.30500E-02
-1.20890E-02
 5.30210E-02
 3.83770E-02
-7.42150E-02
-5.48500E-02
 4.55200E-03
-1.92500E-02
-6.64800E-03
-7.63200E-03
-1.57080E-02
 3.55300E-03
-2.60740E-02
-2.25280E-02
-4.40310E-02
 1.39230E-02
 4.14000E-03
-7.22300E-03
 6.21600E-03
 1.14577E-01
-1.06450E-01
-1.19397E-01
-4.93020E-02
-5.97950E-02
 1.63180E-02
 4.46200E-03
 2.83400E-03
-4.75920E-02
-1.13690E-02
-4.94500E-03
-9.42400E-03
-1.85930E-02
 1.97170E-02
-1.67770E-02
 1.25490E-02
 8.15730E-02
-1.16000E-04
 8.26520E-02
-9.09420E-02
-1.67464E-01
-2.21480E-02
 9.30800E-03
-1.40958E-01
-1.40820E-02
 1.33137E-01
-8.62860E-02
 4.64620E-02
 2.02030E-02
-1.75213E-01
 1.31690E-02
 2.42590E-02
 6.81500E-02
-1.42941E-01
-4.80470E-02
 2.15470E-02
-1.15126E-01
-1.98600E-03
-3.16290E-02
 5.61060E-02
-3.50215E-01
-4.41470E-02
-9.30600E-03
-1.14180E-02
 3.25170E-02
 1.63327E-01
 6.32800E-02
 1.43650E-02
 8.83100E-03
-3.33100E-02
 1.61153E-01
-6.46810E-02
-3.81750E-02
-6.30100E-02
-3.00030E-02
-1.29270E-02
-2.35900E-03
 4.16900E-03
 3.34460E-01
-4.55480E-02
 5.11940E-02
 2.08430E-02
 3.62330E-02
 2.03390E-02
-1.86440E-02
-1.04660E-02
-5.80300E-03
-3.77560E-02
 1.54220E-02
 1.03490E-02
 1.76340E-02
 1.11710E-02
-2.83467E-01
-1.26270E-02
 2.34690E-02
 9.36000E-03
 2.55500E-03
 1.68570E-02
 4.84370E-02
-4.67630E-02
 3.88800E-03
-3.00140E-02
-8.20250E-02
-3.91910E-02
-5.62600E-02
-6.01320E-02
-4.15300E-03
-1.24450E-02
-1.17400E-02
-1.48890E-02
-1.47170E-02
-3.84100E-03
 4.65420E-02
 3.22950E-02
 2.63710E-02
 7.45160E-02
 9.35790E-02
 1.00000E-06
 3.74900E-03
-2.64080E-02
-1.54800E-02
 4.45180E-02
-3.30750E-02
-4.77000E-04
-3.49500E-03
-4.05300E-03
-1.60730E-02
 2.28710E-02
-5.96300E-03
-6.50900E-03
 5.07890E-02
 2.45420E-02
 7.43630E-02
-1.13920E-02
-4.00640E-02
-4.25450E-02
-4.79300E-02
-4.11270E-02
 5.07000E-04
-2.09560E-02
 2.08400E-02
-1.37260E-02
 1.04760E-02
 5.44700E-03
 3.82500E-03
 2.74410E-02
 7.67800E-03
 4.26250E-02
 1.89522E-01
-5.15230E-02
-1.03600E-02
 3.21060E-02
-2.63050E-02
 1.05510E-02
 1.96244E-01
-2.47218E-01
 7.21210E-02
 2.88092E-01
 7.50660E-02
-4.29667E-01
-1.70842E-01
 2.73387E-01
 9.67510E-02
 2.51020E-02
 4.15900E-03
 8.10000E-05
-2.60110E-02
-1.25400E-03
-1.18710E-02
-2.23790E-02
 8.04500E-03
-6.02300E-03
 1.46530E-02
-1.39000E-03
-4.31000E-04
-1.97870E-02
 1.97880E-02
-1.94740E-02
-1.03030E-02
 2.76880E-02
 3.53760E-02
-9.06510E-02
-1.41660E-02
 4.94720E-02
 1.48050E-02
 1.57320E-02
-3.02360E-02
-3.19010E-02
 3.08100E-03
 4.89000E-03
 3.80000E-04
-5.25770E-02
-1.89710E-02
 3.02600E-03
-6.35100E-03
 1.89710E-02
 3.96220E-02
 8.30000E-05
 8.58200E-03
-8.71400E-03
-8.61200E-03
 1.13410E-02
 2.35000E-03
-1.46210E-02
-2.95940E-02
-1.43400E-03
-4.45240E-02
-2.54850E-02
-6.82800E-03
 1.36690E-02
-1.11280E-02
 4.32150E-02
 1.01430E-01
 9.41000E-04
-6.83500E-03
-3.68500E-02
-1.13930E-02
 6.21640E-02
 1.57320E-02
-3.06100E-03
-1.65100E-03
 2.52700E-03
-3.50530E-02
-2.19700E-02
-6.28880E-02
 2.20000E-02
-1.94870E-02
-8.73500E-03
 9.84710E-02
-7.87800E-03
 1.43030E-02
 6.73900E-03
-1.66090E-02
-2.06400E-03
-7.92200E-03
 1.72320E-02
-9.74300E-03
-4.82860E-02
-1.89560E-02
-1.49030E-02
-1.57270E-02
 2.17400E-02
 8.30900E-03
-2.34090E-02
 1.95958E-01
 4.60000E-05
-9.00590E-02
 2.76800E-03
 1.86162E-01
-1.67036E-01
-1.30010E-02
-3.92930E-02
 1.02782E-01
-2.75100E-03
-2.24400E-03
-2.05630E-02
 1.54292E-01
-4.92420E-02
-3.15540E-02
-1.54490E-02
 4.25200E-02
-4.13200E-03
-1.07355E-01
-4.30280E-02
-1.64520E-02
-6.31360E-02
 3.97330E-02
 1.84710E-02
 2.29570E-02
-1.20248E-01
 6.82020E-02
-3.25200E-03
 4.25240E-02
 5.14700E-02
 1.50108E-01
 2.89040E-02
-2.34800E-03
-3.92100E-03
-9.35830E-02
-1.47416E-01
-7.19350E-02
-5.44320E-02
-2.59680E-02
 7.91500E-03
-9.62700E-03
-4.39400E-03
 2.29780E-02
-8.09600E-03
 3.92870E-02
 9.93000E-03
 1.40500E-02
 2.84140E-02
-1.86234E-01
-1.12400E-03
-3.82010E-02
-6.76230E-02
-2.14090E-02
-1.03401E-01
-2.42100E-02
-2.68330E-02
-3.16030E-02
 2.50570E-02
-4.56590E-02
 2.03390E-02
-4.44000E-03
-7.98100E-03
-1.03220E-02
 5.17960E-02
-1.27610E-02
-4.73800E-03
-4.34300E-03
-3.46600E-02
-7.36140E-02
-4.26250E-02
 1.98700E-03
-2.14480E-02
 2.31090E-02
 3.49800E-03
-2.89550E-02
-1.48100E-03
 7.24400E-03
 5.35460E-02
 1.62120E-02
 4.45850E-02
 3.48610E-02
 1.45000E-04
-3.69170E-02
-7.35430E-02
-4.90380E-02
-6.67870E-02
-3.47820E-02
-9.62500E-03
 7.39700E-03
-7.91900E-03
 1.18220E-02
-2.38900E-03
 1.42450E-02
 3.89070E-02
-1.49210E-02
-4.34500E-03
 6.36880E-02
-1.34120E-02
-5.55370E-02
-6.37520E-02
 3.10500E-03
-1.79940E-02
 1.11880E-02
-4.57500E-03
 2.90000E-05
-6.14500E-03
-2.03610E-02
 4.82500E-03
 1.97450E-02
-1.88590E-02
 2.11400E-03
 1.23510E-02
 3.34080E-02
-4.70500E-03
-2.17759E-01
 1.17910E-01
-3.39330E-02
-6.21140E-02
-6.18600E-03
-2.36518E-01
 1.53310E-02
 1.70300E-03
 1.23811E-01
 3.62850E-02
 9.23600E-03
-1.20413E-01
 6.88000E-04
 4.92950E-02
-7.34600E-03
-1.37200E-03
-8.79300E-03
 9.82900E-03
 3.54300E-03
-2.34870E-02
 1.19400E-02
-1.62720E-02
-8.19800E-03
 1.16750E-02
 1.81700E-03
 3.94480E-02
-8.26800E-03
-1.56630E-02
-4.45000E-04
 3.33950E-02
 1.79710E-02
-2.94000E-04
-3.46670E-02
 1.61410E-02
-5.36200E-03
 2.60470E-02
-8.61400E-03
-2.17960E-02
 1.03850E-02
-1.04630E-02
 2.43110E-02
-1.62570E-02
-4.49960E-02
-3.54580E-02
 3.84400E-03
 2.59180E-02
-1.05620E-02
 2.51000E-04
-2.22460E-02
 2.44670E-02
 4.26890E-02
 6.23770E-02
 3.43580E-02
-1.75070E-02
 6.05200E-03
-2.92800E-03
-7.53200E-03
-8.76730E-02
-5.25090E-02
-4.88880E-02
 1.39520E-02
 2.04160E-02
 8.05860E-02
-1.97780E-02
-4.26400E-02
-1.27700E-03
-4.81400E-03
 4.23930E-02
-1.92400E-03
 3.58000E-03
-2.98500E-03
-2.06620E-02
-3.73660E-02
-1.07899E-01
-2.77600E-02
-4.20050E-02
-2.09540E-02
-5.00300E-03
 1.46333E-01
-8.55000E-04
-3.76840E-02
-1.64270E-02
-6.37600E-03
 2.51130E-02
 2.70500E-02
-7.53100E-03
 4.57900E-03
-4.51600E-02
-6.67340E-02
 8.25000E-03
-2.30980E-02
-3.69470E-02
-2.44400E-02
-2.99920E-02
 4.61370E-02
-4.70000E-04
 4.16700E-03
-3.64060E-02
 3.06890E-02
-1.58541E-01
-9.10900E-03
-5.55640E-02
-6.59670E-02
 8.43180E-02
-1.53540E-02
-1.67990E-02
 2.81400E-03
 7.65000E-04
 5.68300E-02
-3.52730E-01
-3.60311E-01
-1.04680E-01
-5.50130E-02
-5.92400E-03
-1.56780E-02
-6.52110E-02
-9.12870E-02
-1.08400E-02
 4.66230E-02
 3.25930E-02
 1.19200E-03
-2.60740E-02
 2.53460E-02
 7.78010E-02
-2.20170E-02
 5.50910E-02
 6.11970E-02
-1.34600E-01
 7.05200E-02
-7.88850E-02
-1.95990E-02
-2.31110E-02
 1.12360E-02
-4.59020E-02
-8.41000E-04
 1.84490E-02
 4.30600E-03
 3.92160E-02
 1.48570E-02
 7.52000E-03
 2.63180E-02
 6.42790E-02
-2.28800E-03
-1.05908E-01
-1.01600E-01
-1.65443E-01
-1.02423E-01
-1.82380E-02
-2.98470E-02
-1.75900E-02
-2.40320E-02
 1.01700E-02
-2.44960E-02
-2.27820E-02
-1.79640E-02
 1.91450E-02
 1.54110E-02
 8.91070E-02
 8.31020E-02
-1.61770E-01
 8.90300E-03
-5.05640E-02
-1.61502E-01
-3.84410E-02
-4.46550E-02
-1.15550E-02
-2.18350E-02
-9.21800E-03
-4.01770E-02
-1.57990E-02
 1.35710E-02
 1.00390E-02
 4.23430E-02
 1.96100E-03
 2.79250E-02
-1.09160E-02
-2.32430E-02
-6.43440E-02
-3.23980E-02
 3.79260E-02
-7.95700E-03
 5.26300E-03
-8.03100E-03
-1.23310E-02
-1.07090E-02
-3.15790E-02
 2.33190E-02
 2.80840E-02
-9.12000E-04
 1.33020E-02
 3.02060E-02
-1.18985E-01
-4.38900E-02
-6.05780E-02
-4.77700E-03
-1.74870E-02
-1.72780E-02
 3.23300E-03
-1.72270E-02
 1.53500E-02
-1.03510E-02
-2.27200E-03
-7.82600E-03
 2.34020E-02
-6.64200E-03
 2.34850E-02
 4.84000E-02
 1.12000E-04
 1.07845E-01
-1.28951E-01
-1.41490E-02
-1.97460E-02
-3.93280E-02
-1.79300E-02
-7.56800E-03
-1.32610E-02
 2.25710E-02
-2.21060E-02
 2.56180E-01
-1.29764E-01
-9.31800E-03
 2.15640E-02
 3.52150E-02
 1.52000E-04
 3.79000E-04
 2.04700E-03
-1.84170E-02
-1.49450E-02
-3.06640E-02
-1.26650E-02
-1.49050E-02
-2.90760E-02
-4.54700E-03
 5.87000E-03
 3.97800E-03
-1.22790E-02
-3.38600E-03
-1.05430E-02
 9.10250E-02
-1.31500E-03
 9.74000E-04
-7.59300E-03
 9.79200E-03
-7.94100E-03
 2.99400E-03
 1.17630E-02
-3.51400E-02
-9.74400E-03
 1.46800E-02
-2.00320E-02
-8.44100E-03
-3.85220E-02
-4.15000E-03
 1.42610E-02
 2.85560E-02
-2.13400E-03
-1.37210E-02
 1.97360E-02
 3.49650E-02
 1.07010E-02
-3.24830E-02
-3.29500E-02
 5.38000E-04
-2.27090E-02
-1.87700E-02
 7.47800E-03
-1.72675E-01
-4.07070E-02
-2.37300E-03
 1.08200E-02
 6.77990E-02
-7.27550E-02
-5.81800E-03
-3.39700E-03
 8.43740E-02
 3.99200E-02
 1.77870E-02
 2.03120E-02
-2.66600E-03
 3.37420E-02
-4.80000E-05
-1.36291E-01
-1.37864E-01
-3.23910E-02
 1.32700E-03
-1.41710E-02
 5.58700E-02
-8.26620E-02
 8.35400E-03
-4.92200E-03
 4.35100E-03
-4.29870E-02
 4.30370E-02
 1.02090E-02
-7.32400E-03
-1.85990E-02
-7.40860E-02
-1.76139E-01
-3.60290E-02
-5.59310E-02
-1.31730E-02
 3.65410E-02
 1.05787E-01
-3.89940E-02
-1.68254E-01
-5.29410E-02
-7.36890E-02
 4.98750E-02
 2.81500E-03
 1.00420E-02
-7.75290E-02
-2.94240E-02
-2.81710E-02
-6.08350E-02
 9.13000E-02
 4.83200E-03
-4.73740E-02
 2.90000E-03
 1.36604E-01
-1.60000E-04
-6.76900E-03
-3.03350E-02
-6.74750E-02
-2.68900E-03
-3.08540E-02
 3.52920E-02
-2.82760E-02
 2.36700E-03
-3.87800E-03
 1.81600E-03
 6.56390E-02
 3.32380E-02
 3.74910E-02
 3.56580E-02
 5.10350E-02
 3.80000E-05
-6.66100E-02
-8.28670E-02
-8.63260E-02
-9.11840E-02
-7.43800E-03
-4.41950E-02
 1.53940E-02
 8.75800E-03
-2.02340E-02
 1.18410E-02
-3.09390E-02
 3.21980E-02
 4.68280E-02
 3.89500E-03
 1.02920E-02
-1.00694E-01
-3.76710E-02
-3.24860E-02
-7.16620E-02
-1.49250E-02
-1.15010E-02
-7.26000E-03
-1.44310E-02
-1.14880E-02
-7.65000E-03
-6.73000E-04
 3.10570E-02
 1.01000E-04
 4.99420E-02
 3.61520E-02
 8.91470E-02
-7.52000E-04
-1.40770E-02
-5.93180E-02
-6.25580E-02
-2.92390E-02
-6.16800E-03
 3.73180E-02
-2.81000E-04
-7.29400E-03
 1.14060E-02
 7.44900E-03
 3.08750E-02
 6.61030E-02
-5.37800E-03
 9.45400E-03
 1.52880E-02
 5.30000E-05
-3.95550E-02
-4.26210E-02
-3.57520E-02
-8.01000E-04
 9.46400E-03
-1.73810E-02
 3.56600E-03
-1.65490E-02
-1.11120E-02
 1.02330E-02
 3.88260E-02
 2.51130E-02
-1.34570E-02
-1.45830E-02
 7.00510E-02
-1.76980E-02
-6.84640E-02
-2.89590E-02
-3.07450E-02
 1.38900E-03
-6.89600E-03
-2.21300E-02
 3.36200E-03
 3.33100E-03
 9.62000E-04
 3.11990E-02
 4.75000E-04
 5.13530E-02
 2.38630E-02
 4.46730E-02
 5.18590E-02
-6.71000E-03
-6.96810E-02
-3.77440E-02
 7.69900E-03
-1.31860E-02
-1.69150E-02
 3.22300E-03
 1.46700E-03
-8.88100E-03
-4.86200E-03
-5.44800E-03
-1.30561E-01
 5.02860E-02
 2.78245E-01
 7.10210E-02
 1.52000E-02
-8.89480E-02
-1.01410E-02
 1.79600E-02
-3.19700E-03
-1.89680E-02
-2.67210E-02
-1.37100E-03
 1.07000E-04
-4.42500E-03
-7.67000E-03
-1.64570E-02
 3.57100E-03
-4.56860E-02
 4.27000E-04
-1.50960E-02
 4.89180E-02
-1.37269E-01
-4.39650E-02
-2.11680E-02
 1.39300E-02
-2.16240E-02
 1.33550E-02
-6.34400E-03
-8.37800E-03
-7.70000E-05
 1.87580E-02
 2.38100E-03
-3.88600E-03
-6.61020E-02
-1.47640E-02
 9.37100E-03
 2.51740E-02
-6.39000E-04
 2.13900E-03
-9.22100E-03
 7.62400E-03
 2.66100E-03
-2.57790E-02
-4.27300E-03
-1.33170E-02
-4.82000E-03
-7.44200E-03
-1.78660E-02
 1.10340E-02
-7.16630E-02
-1.24050E-02
 1.20680E-02
 5.50570E-02
-3.59000E-04
-4.34000E-04
-1.58200E-03
 4.08260E-02
 3.65070E-02
 6.74400E-03
 5.11600E-03
-4.76590E-02
-6.91400E-03
-1.72700E-03
-5.62810E-02
-4.30580E-02
-3.45080E-02
-1.40580E-02
-8.42700E-03
 8.53770E-02
-1.94210E-02
 1.17020E-02
-2.62400E-03
 2.50760E-02
-3.23400E-03
 1.46210E-02
 4.35900E-03
 5.22860E-02
-4.67490E-02
-2.84570E-02
-7.28250E-02
-5.50030E-02
-4.12140E-02
 2.09800E-03
 2.41540E-02
-1.77000E-02
 9.00000E-06
-3.58690E-02
-3.52390E-02
-7.76370E-02
-4.41700E-02
-1.66760E-02
 1.66600E-02
 1.57685E-01
 2.47190E-02
-1.33510E-02
 6.01820E-02
 2.89880E-02
 6.52800E-03
 1.51918E-01
 3.43060E-02
-2.35830E-02
-2.63900E-03
-9.61710E-02
-4.74940E-02
-7.56610E-02
-1.29080E-02
-2.55590E-02
-2.11550E-02
 5.84850E-02
-3.73560E-02
-2.44780E-02
 3.83010E-02
-2.53330E-02
 6.49150E-02
 6.82220E-02
 2.49750E-02
 3.59600E-02
-3.25850E-02
-5.79610E-02
-5.69750E-02
-1.34440E-01
-9.67140E-02
 3.17150E-02
 6.91000E-03
-4.45390E-02
-1.12110E-02
-2.24530E-02
-2.59400E-03
 2.20610E-02
 9.79300E-03
 3.38030E-02
 1.30900E-02
-3.27430E-02
-1.80626E-01
-8.92250E-02
-8.44640E-02
-3.98860E-02
-1.78400E-02
 1.77300E-03
-1.03650E-02
-3.46330E-02
-2.01680E-02
-3.27670E-02
-6.75400E-03
 8.35340E-02
-8.52600E-03
 1.36300E-03
-1.16700E-03
 5.45820E-02
-7.75000E-04
-5.89180E-02
-1.81770E-02
-1.41610E-02
-4.35500E-02
-3.05120E-02
-1.01310E-02
-8.66300E-03
 3.11700E-03
-2.08260E-02
 1.12090E-02