# vtk DataFile Version 2.0
Output of NLACE
ASCII
DATASET UNSTRUCTURED_GRID
POINTS          121 FLOAT
 0.000000E+00  0.000000E+00  0.000000E+00
 5.000000E+00  0.000000E+00  0.000000E+00
 1.000000E+01  0.000000E+00  0.000000E+00
 1.500000E+01  0.000000E+00  0.000000E+00
 2.000000E+01  0.000000E+00  0.000000E+00
 2.500000E+01  0.000000E+00  0.000000E+00
 3.000000E+01  0.000000E+00  0.000000E+00
 3.500000E+01  0.000000E+00  0.000000E+00
 4.000000E+01  0.000000E+00  0.000000E+00
 4.500000E+01  0.000000E+00  0.000000E+00
 5.000000E+01  0.000000E+00  0.000000E+00
 0.000000E+00  5.000000E+00  0.000000E+00
 5.000000E+00  5.000000E+00  0.000000E+00
 1.000000E+01  5.000000E+00  0.000000E+00
 1.500000E+01  5.000000E+00  0.000000E+00
 2.000000E+01  5.000000E+00  0.000000E+00
 2.500000E+01  5.000000E+00  0.000000E+00
 3.000000E+01  5.000000E+00  0.000000E+00
 3.500000E+01  5.000000E+00  0.000000E+00
 4.000000E+01  5.000000E+00  0.000000E+00
 4.500000E+01  5.000000E+00  0.000000E+00
 5.000000E+01  5.000000E+00  0.000000E+00
 0.000000E+00  1.000000E+01  0.000000E+00
 5.000000E+00  1.000000E+01  0.000000E+00
 1.000000E+01  1.000000E+01  0.000000E+00
 1.500000E+01  1.000000E+01  0.000000E+00
 2.000000E+01  1.000000E+01  0.000000E+00
 2.500000E+01  1.000000E+01  0.000000E+00
 3.000000E+01  1.000000E+01  0.000000E+00
 3.500000E+01  1.000000E+01  0.000000E+00
 4.000000E+01  1.000000E+01  0.000000E+00
 4.500000E+01  1.000000E+01  0.000000E+00
 5.000000E+01  1.000000E+01  0.000000E+00
 0.000000E+00  1.500000E+01  0.000000E+00
 5.000000E+00  1.500000E+01  0.000000E+00
 1.000000E+01  1.500000E+01  0.000000E+00
 1.500000E+01  1.500000E+01  0.000000E+00
 2.000000E+01  1.500000E+01  0.000000E+00
 2.500000E+01  1.500000E+01  0.000000E+00
 3.000000E+01  1.500000E+01  0.000000E+00
 3.500000E+01  1.500000E+01  0.000000E+00
 4.000000E+01  1.500000E+01  0.000000E+00
 4.500000E+01  1.500000E+01  0.000000E+00
 5.000000E+01  1.500000E+01  0.000000E+00
 0.000000E+00  2.000000E+01  0.000000E+00
 5.000000E+00  2.000000E+01  0.000000E+00
 1.000000E+01  2.000000E+01  0.000000E+00
 1.500000E+01  2.000000E+01  0.000000E+00
 2.000000E+01  2.000000E+01  0.000000E+00
 2.500000E+01  2.000000E+01  0.000000E+00
 3.000000E+01  2.000000E+01  0.000000E+00
 3.500000E+01  2.000000E+01  0.000000E+00
 4.000000E+01  2.000000E+01  0.000000E+00
 4.500000E+01  2.000000E+01  0.000000E+00
 5.000000E+01  2.000000E+01  0.000000E+00
 0.000000E+00  2.500000E+01  0.000000E+00
 5.000000E+00  2.500000E+01  0.000000E+00
 1.000000E+01  2.500000E+01  0.000000E+00
 1.500000E+01  2.500000E+01  0.000000E+00
 2.000000E+01  2.500000E+01  0.000000E+00
 2.500000E+01  2.500000E+01  0.000000E+00
 3.000000E+01  2.500000E+01  0.000000E+00
 3.500000E+01  2.500000E+01  0.000000E+00
 4.000000E+01  2.500000E+01  0.000000E+00
 4.500000E+01  2.500000E+01  0.000000E+00
 5.000000E+01  2.500000E+01  0.000000E+00
 0.000000E+00  3.000000E+01  0.000000E+00
 5.000000E+00  3.000000E+01  0.000000E+00
 1.000000E+01  3.000000E+01  0.000000E+00
 1.500000E+01  3.000000E+01  0.000000E+00
 2.000000E+01  3.000000E+01  0.000000E+00
 2.500000E+01  3.000000E+01  0.000000E+00
 3.000000E+01  3.000000E+01  0.000000E+00
 3.500000E+01  3.000000E+01  0.000000E+00
 4.000000E+01  3.000000E+01  0.000000E+00
 4.500000E+01  3.000000E+01  0.000000E+00
 5.000000E+01  3.000000E+01  0.000000E+00
 0.000000E+00  3.500000E+01  0.000000E+00
 5.000000E+00  3.500000E+01  0.000000E+00
 1.000000E+01  3.500000E+01  0.000000E+00
 1.500000E+01  3.500000E+01  0.000000E+00
 2.000000E+01  3.500000E+01  0.000000E+00
 2.500000E+01  3.500000E+01  0.000000E+00
 3.000000E+01  3.500000E+01  0.000000E+00
 3.500000E+01  3.500000E+01  0.000000E+00
 4.000000E+01  3.500000E+01  0.000000E+00
 4.500000E+01  3.500000E+01  0.000000E+00
 5.000000E+01  3.500000E+01  0.000000E+00
 0.000000E+00  4.000000E+01  0.000000E+00
 5.000000E+00  4.000000E+01  0.000000E+00
 1.000000E+01  4.000000E+01  0.000000E+00
 1.500000E+01  4.000000E+01  0.000000E+00
 2.000000E+01  4.000000E+01  0.000000E+00
 2.500000E+01  4.000000E+01  0.000000E+00
 3.000000E+01  4.000000E+01  0.000000E+00
 3.500000E+01  4.000000E+01  0.000000E+00
 4.000000E+01  4.000000E+01  0.000000E+00
 4.500000E+01  4.000000E+01  0.000000E+00
 5.000000E+01  4.000000E+01  0.000000E+00
 0.000000E+00  4.500000E+01  0.000000E+00
 5.000000E+00  4.500000E+01  0.000000E+00
 1.000000E+01  4.500000E+01  0.000000E+00
 1.500000E+01  4.500000E+01  0.000000E+00
 2.000000E+01  4.500000E+01  0.000000E+00
 2.500000E+01  4.500000E+01  0.000000E+00
 3.000000E+01  4.500000E+01  0.000000E+00
 3.500000E+01  4.500000E+01  0.000000E+00
 4.000000E+01  4.500000E+01  0.000000E+00
 4.500000E+01  4.500000E+01  0.000000E+00
 5.000000E+01  4.500000E+01  0.000000E+00
 0.000000E+00  5.000000E+01  0.000000E+00
 5.000000E+00  5.000000E+01  0.000000E+00
 1.000000E+01  5.000000E+01  0.000000E+00
 1.500000E+01  5.000000E+01  0.000000E+00
 2.000000E+01  5.000000E+01  0.000000E+00
 2.500000E+01  5.000000E+01  0.000000E+00
 3.000000E+01  5.000000E+01  0.000000E+00
 3.500000E+01  5.000000E+01  0.000000E+00
 4.000000E+01  5.000000E+01  0.000000E+00
 4.500000E+01  5.000000E+01  0.000000E+00
 5.000000E+01  5.000000E+01  0.000000E+00
CELLS          100         500
4    0    1   12   11
4    1    2   13   12
4    2    3   14   13
4    3    4   15   14
4    4    5   16   15
4    5    6   17   16
4    6    7   18   17
4    7    8   19   18
4    8    9   20   19
4    9   10   21   20
4   11   12   23   22
4   12   13   24   23
4   13   14   25   24
4   14   15   26   25
4   15   16   27   26
4   16   17   28   27
4   17   18   29   28
4   18   19   30   29
4   19   20   31   30
4   20   21   32   31
4   22   23   34   33
4   23   24   35   34
4   24   25   36   35
4   25   26   37   36
4   26   27   38   37
4   27   28   39   38
4   28   29   40   39
4   29   30   41   40
4   30   31   42   41
4   31   32   43   42
4   33   34   45   44
4   34   35   46   45
4   35   36   47   46
4   36   37   48   47
4   37   38   49   48
4   38   39   50   49
4   39   40   51   50
4   40   41   52   51
4   41   42   53   52
4   42   43   54   53
4   44   45   56   55
4   45   46   57   56
4   46   47   58   57
4   47   48   59   58
4   48   49   60   59
4   49   50   61   60
4   50   51   62   61
4   51   52   63   62
4   52   53   64   63
4   53   54   65   64
4   55   56   67   66
4   56   57   68   67
4   57   58   69   68
4   58   59   70   69
4   59   60   71   70
4   60   61   72   71
4   61   62   73   72
4   62   63   74   73
4   63   64   75   74
4   64   65   76   75
4   66   67   78   77
4   67   68   79   78
4   68   69   80   79
4   69   70   81   80
4   70   71   82   81
4   71   72   83   82
4   72   73   84   83
4   73   74   85   84
4   74   75   86   85
4   75   76   87   86
4   77   78   89   88
4   78   79   90   89
4   79   80   91   90
4   80   81   92   91
4   81   82   93   92
4   82   83   94   93
4   83   84   95   94
4   84   85   96   95
4   85   86   97   96
4   86   87   98   97
4   88   89  100   99
4   89   90  101  100
4   90   91  102  101
4   91   92  103  102
4   92   93  104  103
4   93   94  105  104
4   94   95  106  105
4   95   96  107  106
4   96   97  108  107
4   97   98  109  108
4   99  100  111  110
4  100  101  112  111
4  101  102  113  112
4  102  103  114  113
4  103  104  115  114
4  104  105  116  115
4  105  106  117  116
4  106  107  118  117
4  107  108  119  118
4  108  109  120  119
CELL_TYPES          100
9
9
9
9
9
9
9
9
9
9
9
9
9
9
9
9
9
9
9
9
9
9
9
9
9
9
9
9
9
9
9
9
9
9
9
9
9
9
9
9
9
9
9
9
9
9
9
9
9
9
9
9
9
9
9
9
9
9
9
9
9
9
9
9
9
9
9
9
9
9
9
9
9
9
9
9
9
9
9
9
9
9
9
9
9
9
9
9
9
9
9
9
9
9
9
9
9
9
9
9
POINT_DATA          121
 SCALARS predictedDisp11 float  1                  
LOOKUP_TABLE default
 0.00000E+00
 0.00000E+00
 0.00000E+00
 0.00000E+00
 0.00000E+00
 0.00000E+00
 0.00000E+00
 0.00000E+00
 0.00000E+00
 0.00000E+00
 0.00000E+00
 4.76190E-02
 4.76190E-02
 4.76190E-02
 4.76190E-02
 4.76190E-02
 4.76190E-02
 4.76190E-02
 4.76190E-02
 4.76190E-02
 4.76190E-02
 4.76190E-02
 9.52381E-02
 9.52381E-02
 9.52381E-02
 9.52381E-02
 9.52381E-02
 9.52381E-02
 9.52381E-02
 9.52381E-02
 9.52381E-02
 9.52381E-02
 9.52381E-02
 1.42857E-01
 1.42857E-01
 1.42857E-01
 1.42857E-01
 1.42857E-01
 1.42857E-01
 1.42857E-01
 1.42857E-01
 1.42857E-01
 1.42857E-01
 1.42857E-01
 1.90476E-01
 1.90476E-01
 1.90476E-01
 1.90476E-01
 1.90476E-01
 1.90476E-01
 1.90476E-01
 1.90476E-01
 1.90476E-01
 1.90476E-01
 1.90476E-01
 2.38095E-01
 2.38095E-01
 2.38095E-01
 2.38095E-01
 2.38095E-01
 2.38095E-01
 2.38095E-01
 2.38095E-01
 2.38095E-01
 2.38095E-01
 2.38095E-01
 2.85714E-01
 2.85714E-01
 2.85714E-01
 2.85714E-01
 2.85714E-01
 2.85714E-01
 2.85714E-01
 2.85714E-01
 2.85714E-01
 2.85714E-01
 2.85714E-01
 3.33333E-01
 3.33333E-01
 3.33333E-01
 3.33333E-01
 3.33333E-01
 3.33333E-01
 3.33333E-01
 3.33333E-01
 3.33333E-01
 3.33333E-01
 3.33333E-01
 3.80952E-01
 3.80952E-01
 3.80952E-01
 3.80952E-01
 3.80952E-01
 3.80952E-01
 3.80952E-01
 3.80952E-01
 3.80952E-01
 3.80952E-01
 3.80952E-01
 4.28571E-01
 4.28571E-01
 4.28571E-01
 4.28571E-01
 4.28571E-01
 4.28571E-01
 4.28571E-01
 4.28571E-01
 4.28571E-01
 4.28571E-01
 4.28571E-01
 4.76190E-01
 4.76190E-01
 4.76190E-01
 4.76190E-01
 4.76190E-01
 4.76190E-01
 4.76190E-01
 4.76190E-01
 4.76190E-01
 4.76190E-01
 4.76190E-01
 SCALARS predictedDisp12 float  1                  
LOOKUP_TABLE default
 0.00000E+00
 0.00000E+00
 0.00000E+00
 0.00000E+00
 0.00000E+00
 0.00000E+00
 0.00000E+00
 0.00000E+00
 0.00000E+00
 0.00000E+00
 0.00000E+00
 0.00000E+00
 1.46299E-17
 2.54437E-17
 3.44712E-17
 4.05177E-17
 4.30747E-17
 3.30663E-17
 2.96152E-17
 2.53247E-17
 1.20007E-17
 0.00000E+00
 0.00000E+00
 2.27880E-17
 4.78290E-17
 7.42971E-17
 8.50581E-17
 8.77991E-17
 6.39258E-17
 5.55807E-17
 5.14560E-17
 2.77551E-17
 0.00000E+00
 0.00000E+00
 2.65162E-17
 6.71233E-17
 1.11723E-16
 1.29027E-16
 1.14697E-16
 8.73289E-17
 7.81927E-17
 7.32275E-17
 3.91399E-17
 0.00000E+00
 0.00000E+00
 3.01739E-17
 9.86748E-17
 1.25516E-16
 1.59182E-16
 1.33621E-16
 1.02744E-16
 9.06701E-17
 8.99192E-17
 5.34194E-17
 0.00000E+00
 0.00000E+00
 4.55836E-17
 1.13121E-16
 1.50966E-16
 1.70325E-16
 1.56682E-16
 1.14643E-16
 8.98973E-17
 8.97971E-17
 5.64341E-17
 0.00000E+00
 0.00000E+00
 6.77017E-17
 1.30853E-16
 1.65981E-16
 1.82640E-16
 1.51874E-16
 1.17807E-16
 8.09711E-17
 1.00377E-16
 6.61277E-17
 0.00000E+00
 0.00000E+00
 9.82194E-17
 1.40767E-16
 1.34873E-16
 1.53209E-16
 1.28542E-16
 9.28143E-17
 9.07651E-17
 9.19810E-17
 5.80569E-17
 0.00000E+00
 0.00000E+00
 6.53506E-17
 1.24236E-16
 1.08754E-16
 1.02852E-16
 9.27050E-17
 9.87551E-17
 7.64697E-17
 7.79848E-17
 3.03109E-17
 0.00000E+00
 0.00000E+00
 2.24324E-17
 5.01942E-17
 5.17144E-17
 4.55198E-17
 5.70915E-17
 6.53412E-17
 4.31580E-17
 6.17641E-17
-1.78601E-17
 0.00000E+00
 0.00000E+00
 0.00000E+00
 0.00000E+00
 0.00000E+00
 0.00000E+00
 0.00000E+00
 0.00000E+00
 0.00000E+00
 0.00000E+00
 0.00000E+00
 0.00000E+00
 SCALARS NLP float  1                              
LOOKUP_TABLE default
 2.00000E+00
 2.00000E+00
 2.00000E+00
 2.00000E+00
 2.00000E+00
 2.00000E+00
 2.00000E+00
 2.00000E+00
 2.00000E+00
 2.00000E+00
 2.00000E+00
 2.00000E+00
 2.00000E+00
 2.00000E+00
 2.00000E+00
 2.00000E+00
 2.00000E+00
 2.00000E+00
 2.00000E+00
 2.00000E+00
 2.00000E+00
 2.00000E+00
 2.00000E+00
 2.00000E+00
 2.00000E+00
 2.00000E+00
 2.00000E+00
 2.00000E+00
 2.00000E+00
 2.00000E+00
 2.00000E+00
 2.00000E+00
 2.00000E+00
 2.00000E+00
 2.00000E+00
 2.00000E+00
 2.00000E+00
 2.00000E+00
 2.00000E+00
 2.00000E+00
 2.00000E+00
 2.00000E+00
 2.00000E+00
 2.00000E+00
 2.00000E+00
 2.00000E+00
 2.00000E+00
 2.00000E+00
 2.00000E+00
 2.00000E+00
 2.00000E+00
 2.00000E+00
 2.00000E+00
 2.00000E+00
 2.00000E+00
 2.00000E+00
 2.00000E+00
 2.00000E+00
 2.00000E+00
 2.00000E+00
 2.00000E+00
 2.00000E+00
 2.00000E+00
 2.00000E+00
 2.00000E+00
 2.00000E+00
 2.00000E+00
 2.00000E+00
 2.00000E+00
 2.00000E+00
 2.00000E+00
 2.00000E+00
 2.00000E+00
 2.00000E+00
 2.00000E+00
 2.00000E+00
 2.00000E+00
 2.00000E+00
 2.00000E+00
 2.00000E+00
 2.00000E+00
 2.00000E+00
 2.00000E+00
 2.00000E+00
 2.00000E+00
 2.00000E+00
 2.00000E+00
 2.00000E+00
 2.00000E+00
 2.00000E+00
 2.00000E+00
 2.00000E+00
 2.00000E+00
 2.00000E+00
 2.00000E+00
 2.00000E+00
 2.00000E+00
 2.00000E+00
 2.00000E+00
 2.00000E+00
 2.00000E+00
 2.00000E+00
 2.00000E+00
 2.00000E+00
 2.00000E+00
 2.00000E+00
 2.00000E+00
 2.00000E+00
 2.00000E+00
 2.00000E+00
 2.00000E+00
 2.00000E+00
 2.00000E+00
 2.00000E+00
 2.00000E+00
 2.00000E+00
 2.00000E+00
 2.00000E+00
 2.00000E+00
 2.00000E+00
 2.00000E+00
 SCALARS SM float  1                               
LOOKUP_TABLE default
 1.05000E+00
 1.05000E+00
 1.05000E+00
 1.05000E+00
 1.05000E+00
 1.05000E+00
 1.05000E+00
 1.05000E+00
 1.05000E+00
 1.05000E+00
 1.05000E+00
 1.05000E+00
 1.05000E+00
 1.05000E+00
 1.05000E+00
 1.05000E+00
 1.05000E+00
 1.05000E+00
 1.05000E+00
 1.05000E+00
 1.05000E+00
 1.05000E+00
 1.05000E+00
 1.05000E+00
 1.05000E+00
 1.05000E+00
 1.05000E+00
 1.05000E+00
 1.05000E+00
 1.05000E+00
 1.05000E+00
 1.05000E+00
 1.05000E+00
 1.05000E+00
 1.05000E+00
 1.05000E+00
 1.05000E+00
 1.05000E+00
 1.05000E+00
 1.05000E+00
 1.05000E+00
 1.05000E+00
 1.05000E+00
 1.05000E+00
 1.05000E+00
 1.05000E+00
 1.05000E+00
 1.05000E+00
 1.05000E+00
 1.05000E+00
 1.05000E+00
 1.05000E+00
 1.05000E+00
 1.05000E+00
 1.05000E+00
 1.05000E+00
 1.05000E+00
 1.05000E+00
 1.05000E+00
 1.05000E+00
 1.05000E+00
 1.05000E+00
 1.05000E+00
 1.05000E+00
 1.05000E+00
 1.05000E+00
 1.05000E+00
 1.05000E+00
 1.05000E+00
 1.05000E+00
 1.05000E+00
 1.05000E+00
 1.05000E+00
 1.05000E+00
 1.05000E+00
 1.05000E+00
 1.05000E+00
 1.05000E+00
 1.05000E+00
 1.05000E+00
 1.05000E+00
 1.05000E+00
 1.05000E+00
 1.05000E+00
 1.05000E+00
 1.05000E+00
 1.05000E+00
 1.05000E+00
 1.05000E+00
 1.05000E+00
 1.05000E+00
 1.05000E+00
 1.05000E+00
 1.05000E+00
 1.05000E+00
 1.05000E+00
 1.05000E+00
 1.05000E+00
 1.05000E+00
 1.05000E+00
 1.05000E+00
 1.05000E+00
 1.05000E+00
 1.05000E+00
 1.05000E+00
 1.05000E+00
 1.05000E+00
 1.05000E+00
 1.05000E+00
 1.05000E+00
 1.05000E+00
 1.05000E+00
 1.05000E+00
 1.05000E+00
 1.05000E+00
 1.05000E+00
 1.05000E+00
 1.05000E+00
 1.05000E+00
 1.05000E+00
 1.05000E+00
 SCALARS property3 float  1                        
LOOKUP_TABLE default
 0.00000E+00
 0.00000E+00
 0.00000E+00
 0.00000E+00
 0.00000E+00
 0.00000E+00
 0.00000E+00
 0.00000E+00
 0.00000E+00
 0.00000E+00
 0.00000E+00
 0.00000E+00
 0.00000E+00
 0.00000E+00
 0.00000E+00
 0.00000E+00
 0.00000E+00
 0.00000E+00
 0.00000E+00
 0.00000E+00
 0.00000E+00
 0.00000E+00
 0.00000E+00
 0.00000E+00
 0.00000E+00
 0.00000E+00
 0.00000E+00
 0.00000E+00
 0.00000E+00
 0.00000E+00
 0.00000E+00
 0.00000E+00
 0.00000E+00
 0.00000E+00
 0.00000E+00
 0.00000E+00
 0.00000E+00
 0.00000E+00
 0.00000E+00
 0.00000E+00
 0.00000E+00
 0.00000E+00
 0.00000E+00
 0.00000E+00
 0.00000E+00
 0.00000E+00
 0.00000E+00
 0.00000E+00
 0.00000E+00
 0.00000E+00
 0.00000E+00
 0.00000E+00
 0.00000E+00
 0.00000E+00
 0.00000E+00
 0.00000E+00
 0.00000E+00
 0.00000E+00
 0.00000E+00
 0.00000E+00
 0.00000E+00
 0.00000E+00
 0.00000E+00
 0.00000E+00
 0.00000E+00
 0.00000E+00
 0.00000E+00
 0.00000E+00
 0.00000E+00
 0.00000E+00
 0.00000E+00
 0.00000E+00
 0.00000E+00
 0.00000E+00
 0.00000E+00
 0.00000E+00
 0.00000E+00
 0.00000E+00
 0.00000E+00
 0.00000E+00
 0.00000E+00
 0.00000E+00
 0.00000E+00
 0.00000E+00
 0.00000E+00
 0.00000E+00
 0.00000E+00
 0.00000E+00
 0.00000E+00
 0.00000E+00
 0.00000E+00
 0.00000E+00
 0.00000E+00
 0.00000E+00
 0.00000E+00
 0.00000E+00
 0.00000E+00
 0.00000E+00
 0.00000E+00
 0.00000E+00
 0.00000E+00
 0.00000E+00
 0.00000E+00
 0.00000E+00
 0.00000E+00
 0.00000E+00
 0.00000E+00
 0.00000E+00
 0.00000E+00
 0.00000E+00
 0.00000E+00
 0.00000E+00
 0.00000E+00
 0.00000E+00
 0.00000E+00
 0.00000E+00
 0.00000E+00
 0.00000E+00
 0.00000E+00
 0.00000E+00
 0.00000E+00
 SCALARS property4 float  1                        
LOOKUP_TABLE default
 0.00000E+00
 0.00000E+00
 0.00000E+00
 0.00000E+00
 0.00000E+00
 0.00000E+00
 0.00000E+00
 0.00000E+00
 0.00000E+00
 0.00000E+00
 0.00000E+00
 0.00000E+00
 0.00000E+00
 0.00000E+00
 0.00000E+00
 0.00000E+00
 0.00000E+00
 0.00000E+00
 0.00000E+00
 0.00000E+00
 0.00000E+00
 0.00000E+00
 0.00000E+00
 0.00000E+00
 0.00000E+00
 0.00000E+00
 0.00000E+00
 0.00000E+00
 0.00000E+00
 0.00000E+00
 0.00000E+00
 0.00000E+00
 0.00000E+00
 0.00000E+00
 0.00000E+00
 0.00000E+00
 0.00000E+00
 0.00000E+00
 0.00000E+00
 0.00000E+00
 0.00000E+00
 0.00000E+00
 0.00000E+00
 0.00000E+00
 0.00000E+00
 0.00000E+00
 0.00000E+00
 0.00000E+00
 0.00000E+00
 0.00000E+00
 0.00000E+00
 0.00000E+00
 0.00000E+00
 0.00000E+00
 0.00000E+00
 0.00000E+00
 0.00000E+00
 0.00000E+00
 0.00000E+00
 0.00000E+00
 0.00000E+00
 0.00000E+00
 0.00000E+00
 0.00000E+00
 0.00000E+00
 0.00000E+00
 0.00000E+00
 0.00000E+00
 0.00000E+00
 0.00000E+00
 0.00000E+00
 0.00000E+00
 0.00000E+00
 0.00000E+00
 0.00000E+00
 0.00000E+00
 0.00000E+00
 0.00000E+00
 0.00000E+00
 0.00000E+00
 0.00000E+00
 0.00000E+00
 0.00000E+00
 0.00000E+00
 0.00000E+00
 0.00000E+00
 0.00000E+00
 0.00000E+00
 0.00000E+00
 0.00000E+00
 0.00000E+00
 0.00000E+00
 0.00000E+00
 0.00000E+00
 0.00000E+00
 0.00000E+00
 0.00000E+00
 0.00000E+00
 0.00000E+00
 0.00000E+00
 0.00000E+00
 0.00000E+00
 0.00000E+00
 0.00000E+00
 0.00000E+00
 0.00000E+00
 0.00000E+00
 0.00000E+00
 0.00000E+00
 0.00000E+00
 0.00000E+00
 0.00000E+00
 0.00000E+00
 0.00000E+00
 0.00000E+00
 0.00000E+00
 0.00000E+00
 0.00000E+00
 0.00000E+00
 0.00000E+00
 0.00000E+00
