# vtk DataFile Version 2.0
Output of NLACE
ASCII
DATASET UNSTRUCTURED_GRID
POINTS           72 FLOAT
 1.217391E+00 -6.180602E+00  0.000000E+00
 4.869565E+00 -6.180602E+00  0.000000E+00
 8.521739E+00 -6.180602E+00  0.000000E+00
 1.217391E+01 -6.180602E+00  0.000000E+00
 1.582609E+01 -6.180602E+00  0.000000E+00
 1.947826E+01 -6.180602E+00  0.000000E+00
 2.313043E+01 -6.180602E+00  0.000000E+00
 2.678261E+01 -6.180602E+00  0.000000E+00
 1.217391E+00 -1.081605E+01  0.000000E+00
 4.869565E+00 -1.081605E+01  0.000000E+00
 8.521739E+00 -1.081605E+01  0.000000E+00
 1.217391E+01 -1.081605E+01  0.000000E+00
 1.582609E+01 -1.081605E+01  0.000000E+00
 1.947826E+01 -1.081605E+01  0.000000E+00
 2.313043E+01 -1.081605E+01  0.000000E+00
 2.678261E+01 -1.081605E+01  0.000000E+00
 1.217391E+00 -1.545151E+01  0.000000E+00
 4.869565E+00 -1.545151E+01  0.000000E+00
 8.521739E+00 -1.545151E+01  0.000000E+00
 1.217391E+01 -1.545151E+01  0.000000E+00
 1.582609E+01 -1.545151E+01  0.000000E+00
 1.947826E+01 -1.545151E+01  0.000000E+00
 2.313043E+01 -1.545151E+01  0.000000E+00
 2.678261E+01 -1.545151E+01  0.000000E+00
 1.217391E+00 -2.008696E+01  0.000000E+00
 4.869565E+00 -2.008696E+01  0.000000E+00
 8.521739E+00 -2.008696E+01  0.000000E+00
 1.217391E+01 -2.008696E+01  0.000000E+00
 1.582609E+01 -2.008696E+01  0.000000E+00
 1.947826E+01 -2.008696E+01  0.000000E+00
 2.313043E+01 -2.008696E+01  0.000000E+00
 2.678261E+01 -2.008696E+01  0.000000E+00
 1.217391E+00 -2.472241E+01  0.000000E+00
 4.869565E+00 -2.472241E+01  0.000000E+00
 8.521739E+00 -2.472241E+01  0.000000E+00
 1.217391E+01 -2.472241E+01  0.000000E+00
 1.582609E+01 -2.472241E+01  0.000000E+00
 1.947826E+01 -2.472241E+01  0.000000E+00
 2.313043E+01 -2.472241E+01  0.000000E+00
 2.678261E+01 -2.472241E+01  0.000000E+00
 1.217391E+00 -2.935786E+01  0.000000E+00
 4.869565E+00 -2.935786E+01  0.000000E+00
 8.521739E+00 -2.935786E+01  0.000000E+00
 1.217391E+01 -2.935786E+01  0.000000E+00
 1.582609E+01 -2.935786E+01  0.000000E+00
 1.947826E+01 -2.935786E+01  0.000000E+00
 2.313043E+01 -2.935786E+01  0.000000E+00
 2.678261E+01 -2.935786E+01  0.000000E+00
 1.217391E+00 -3.399331E+01  0.000000E+00
 4.869565E+00 -3.399331E+01  0.000000E+00
 8.521739E+00 -3.399331E+01  0.000000E+00
 1.217391E+01 -3.399331E+01  0.000000E+00
 1.582609E+01 -3.399331E+01  0.000000E+00
 1.947826E+01 -3.399331E+01  0.000000E+00
 2.313043E+01 -3.399331E+01  0.000000E+00
 2.678261E+01 -3.399331E+01  0.000000E+00
 1.217391E+00 -3.862876E+01  0.000000E+00
 4.869565E+00 -3.862876E+01  0.000000E+00
 8.521739E+00 -3.862876E+01  0.000000E+00
 1.217391E+01 -3.862876E+01  0.000000E+00
 1.582609E+01 -3.862876E+01  0.000000E+00
 1.947826E+01 -3.862876E+01  0.000000E+00
 2.313043E+01 -3.862876E+01  0.000000E+00
 2.678261E+01 -3.862876E+01  0.000000E+00
 1.217391E+00 -4.326421E+01  0.000000E+00
 4.869565E+00 -4.326421E+01  0.000000E+00
 8.521739E+00 -4.326421E+01  0.000000E+00
 1.217391E+01 -4.326421E+01  0.000000E+00
 1.582609E+01 -4.326421E+01  0.000000E+00
 1.947826E+01 -4.326421E+01  0.000000E+00
 2.313043E+01 -4.326421E+01  0.000000E+00
 2.678261E+01 -4.326421E+01  0.000000E+00
CELLS           56         280
4    8    9    1    0
4    9   10    2    1
4   10   11    3    2
4   11   12    4    3
4   12   13    5    4
4   13   14    6    5
4   14   15    7    6
4   16   17    9    8
4   17   18   10    9
4   18   19   11   10
4   19   20   12   11
4   20   21   13   12
4   21   22   14   13
4   22   23   15   14
4   24   25   17   16
4   25   26   18   17
4   26   27   19   18
4   27   28   20   19
4   28   29   21   20
4   29   30   22   21
4   30   31   23   22
4   32   33   25   24
4   33   34   26   25
4   34   35   27   26
4   35   36   28   27
4   36   37   29   28
4   37   38   30   29
4   38   39   31   30
4   40   41   33   32
4   41   42   34   33
4   42   43   35   34
4   43   44   36   35
4   44   45   37   36
4   45   46   38   37
4   46   47   39   38
4   48   49   41   40
4   49   50   42   41
4   50   51   43   42
4   51   52   44   43
4   52   53   45   44
4   53   54   46   45
4   54   55   47   46
4   56   57   49   48
4   57   58   50   49
4   58   59   51   50
4   59   60   52   51
4   60   61   53   52
4   61   62   54   53
4   62   63   55   54
4   64   65   57   56
4   65   66   58   57
4   66   67   59   58
4   67   68   60   59
4   68   69   61   60
4   69   70   62   61
4   70   71   63   62
CELL_TYPES           56
9
9
9
9
9
9
9
9
9
9
9
9
9
9
9
9
9
9
9
9
9
9
9
9
9
9
9
9
9
9
9
9
9
9
9
9
9
9
9
9
9
9
9
9
9
9
9
9
9
9
9
9
9
9
9
9
POINT_DATA           72
 SCALARS measuredDisp11 float  1                   
LOOKUP_TABLE default
-2.67989E-01
-2.46973E-01
-1.95923E-01
-1.74907E-01
-1.54674E-01
-1.33637E-01
-1.00305E-01
-7.82600E-02
-2.53702E-01
-2.67888E-01
-2.08877E-01
-1.65147E-01
-1.52875E-01
-1.12623E-01
-9.26820E-02
-6.43330E-02
-2.60484E-01
-2.48154E-01
-2.16792E-01
-1.72122E-01
-1.40214E-01
-9.11570E-02
-7.78130E-02
-5.73260E-02
-2.55154E-01
-2.24561E-01
-1.96736E-01
-1.62661E-01
-1.23483E-01
-9.87930E-02
-7.31570E-02
-2.42640E-02
-2.55067E-01
-2.26025E-01
-1.76470E-01
-1.39220E-01
-1.26990E-01
-1.07579E-01
-4.15490E-02
-2.23700E-02
-2.51241E-01
-2.20382E-01
-1.36901E-01
-1.35583E-01
-1.43811E-01
-1.15614E-01
-4.81670E-02
-6.79350E-02
-2.26165E-01
-1.69149E-01
-1.75962E-01
-1.15833E-01
-8.50490E-02
-4.70220E-02
-4.42840E-02
 4.42900E-03
-2.20632E-01
-1.80898E-01
-1.95286E-01
-1.48238E-01
-4.62980E-02
-4.27460E-02
-4.78090E-02
 7.52890E-02
-1.59363E-01
-1.86753E-01
-1.51910E-01
-9.99910E-02
-8.52860E-02
 4.74000E-04
 2.29850E-02
-9.93000E-03
 SCALARS measuredDisp12 float  1                   
LOOKUP_TABLE default
 7.62760E-02
 9.05160E-02
 9.65400E-02
 9.75210E-02
 1.07007E-01
 1.16125E-01
 1.24220E-01
 1.33036E-01
 1.50347E-01
 1.56859E-01
 1.71054E-01
 1.74910E-01
 1.85429E-01
 1.83154E-01
 1.98783E-01
 2.03755E-01
 2.27751E-01
 2.31966E-01
 2.41174E-01
 2.51949E-01
 2.60039E-01
 2.74770E-01
 2.74524E-01
 2.83302E-01
 3.04526E-01
 3.06903E-01
 3.15827E-01
 3.31760E-01
 3.47303E-01
 3.48494E-01
 3.54381E-01
 3.57426E-01
 3.77952E-01
 3.86016E-01
 4.01900E-01
 4.25285E-01
 4.46234E-01
 4.34334E-01
 4.33420E-01
 4.41244E-01
 4.59827E-01
 4.65554E-01
 4.82622E-01
 5.09756E-01
 5.18230E-01
 5.17164E-01
 5.18083E-01
 5.24532E-01
 5.42429E-01
 5.52108E-01
 5.60101E-01
 5.57543E-01
 5.70588E-01
 5.74858E-01
 5.95674E-01
 6.06231E-01
 6.29911E-01
 6.39975E-01
 6.47903E-01
 6.32560E-01
 6.37402E-01
 6.67059E-01
 6.83297E-01
 6.95588E-01
 7.16925E-01
 7.24626E-01
 7.38487E-01
 7.32637E-01
 7.38117E-01
 7.58368E-01
 7.63826E-01
 7.79255E-01
 SCALARS predictedDisp11 float  1                  
LOOKUP_TABLE default
-4.04457E-01
-3.74730E-01
-3.44560E-01
-3.14366E-01
-2.84377E-01
-2.54479E-01
-2.23973E-01
-1.94884E-01
-3.92938E-01
-3.64185E-01
-3.36212E-01
-3.06058E-01
-2.74558E-01
-2.43343E-01
-2.12616E-01
-1.82265E-01
-3.87483E-01
-3.57547E-01
-3.28165E-01
-2.97151E-01
-2.64083E-01
-2.30419E-01
-1.98167E-01
-1.67198E-01
-3.82034E-01
-3.52286E-01
-3.21559E-01
-2.87955E-01
-2.51631E-01
-2.16403E-01
-1.84098E-01
-1.53062E-01
-3.68597E-01
-3.37765E-01
-3.06457E-01
-2.74056E-01
-2.41375E-01
-2.09629E-01
-1.78886E-01
-1.46760E-01
-3.51929E-01
-3.17824E-01
-2.84532E-01
-2.56445E-01
-2.32167E-01
-2.06814E-01
-1.76629E-01
-1.43518E-01
-3.41235E-01
-3.06395E-01
-2.71894E-01
-2.44197E-01
-2.20702E-01
-1.95604E-01
-1.64673E-01
-1.30851E-01
-3.24242E-01
-2.89726E-01
-2.61135E-01
-2.34405E-01
-2.09301E-01
-1.82724E-01
-1.54749E-01
-1.21037E-01
-2.52689E-01
-2.40478E-01
-2.28268E-01
-2.16058E-01
-2.03848E-01
-1.91638E-01
-1.79427E-01
-1.67217E-01
 SCALARS predictedDisp12 float  1                  
LOOKUP_TABLE default
 7.62760E-02
 9.05160E-02
 9.65400E-02
 9.75210E-02
 1.07007E-01
 1.16125E-01
 1.24220E-01
 1.33036E-01
 1.50347E-01
 1.60717E-01
 1.68085E-01
 1.74279E-01
 1.81352E-01
 1.90061E-01
 1.99064E-01
 2.03755E-01
 2.27751E-01
 2.32144E-01
 2.40580E-01
 2.49982E-01
 2.59464E-01
 2.68552E-01
 2.75168E-01
 2.83302E-01
 3.04526E-01
 3.07780E-01
 3.18994E-01
 3.33749E-01
 3.46572E-01
 3.51808E-01
 3.54844E-01
 3.57426E-01
 3.77952E-01
 3.86563E-01
 4.04318E-01
 4.29678E-01
 4.43040E-01
 4.40771E-01
 4.35327E-01
 4.41244E-01
 4.59827E-01
 4.66326E-01
 4.81854E-01
 5.00775E-01
 5.11480E-01
 5.13992E-01
 5.14925E-01
 5.24532E-01
 5.42429E-01
 5.53266E-01
 5.58029E-01
 5.60640E-01
 5.68136E-01
 5.80311E-01
 5.96392E-01
 6.06231E-01
 6.29911E-01
 6.44202E-01
 6.47477E-01
 6.38407E-01
 6.43040E-01
 6.64866E-01
 6.84295E-01
 6.95588E-01
 7.16925E-01
 7.24626E-01
 7.38487E-01
 7.32637E-01
 7.38117E-01
 7.58368E-01
 7.63826E-01
 7.79255E-01
 SCALARS dual11 float  1                           
LOOKUP_TABLE default
 6.60362E-04
-1.24317E-03
-2.65401E-03
-1.06558E-03
 1.84565E-03
 1.99867E-03
-2.39394E-04
-8.67840E-04
 8.72116E-04
 6.11057E-05
-1.16567E-03
-1.20769E-03
-3.62717E-04
 5.55106E-04
 4.40084E-04
-1.43005E-04
 1.77724E-03
 2.01017E-03
 9.71366E-04
-9.50315E-04
-1.62402E-03
-1.06681E-03
-7.04767E-04
-8.74645E-04
 6.72874E-04
 6.74315E-04
 1.44832E-04
-5.80544E-04
 2.47665E-04
 1.22846E-04
-1.04987E-03
-1.09628E-03
-2.08168E-03
-2.47118E-03
-2.41489E-03
-6.63501E-04
 1.04131E-03
 1.56368E-03
 1.96859E-03
 2.18258E-03
-6.20614E-04
-6.58482E-04
 3.07003E-04
 9.38605E-04
-8.14503E-05
-7.59186E-04
-1.24954E-04
 3.54057E-04
 2.55844E-03
 2.80360E-03
 3.82808E-03
 2.10965E-03
-1.82619E-03
-3.53498E-03
-3.06734E-03
-2.98695E-03
-4.15165E-04
 7.24406E-04
 1.35994E-03
 7.15654E-04
-4.68393E-04
-1.20784E-03
-8.73851E-04
-6.70779E-04
 0.00000E+00
 0.00000E+00
 0.00000E+00
 0.00000E+00
 0.00000E+00
 0.00000E+00
 0.00000E+00
 0.00000E+00
 SCALARS dual12 float  1                           
LOOKUP_TABLE default
 0.00000E+00
 0.00000E+00
 0.00000E+00
 0.00000E+00
 0.00000E+00
 0.00000E+00
 0.00000E+00
 0.00000E+00
 0.00000E+00
-4.81657E-03
 1.53769E-03
 4.40122E-03
 5.24475E-03
-3.48200E-03
-2.39538E-03
 0.00000E+00
 0.00000E+00
-5.15744E-03
-2.24076E-03
 3.11715E-03
 5.10710E-03
 2.27443E-03
-2.69863E-03
 0.00000E+00
 0.00000E+00
-6.10369E-03
-8.27440E-03
-1.87428E-03
 4.30336E-03
-3.11538E-03
-4.24158E-03
 0.00000E+00
 0.00000E+00
-6.35881E-03
-7.26234E-03
 1.36346E-03
 8.42722E-03
-4.72352E-03
-4.61727E-03
 0.00000E+00
 0.00000E+00
-6.02321E-03
-1.11429E-03
 8.31975E-03
 9.55888E-03
 1.05035E-03
-2.70004E-04
 0.00000E+00
 0.00000E+00
-6.46401E-03
-3.22583E-04
 6.54326E-04
 2.98527E-03
-2.38003E-03
-1.76791E-03
 0.00000E+00
 0.00000E+00
-6.99159E-03
-2.37306E-03
-7.84410E-03
-6.23508E-03
-1.07498E-03
-1.89020E-03
 0.00000E+00
 0.00000E+00
 0.00000E+00
 0.00000E+00
 0.00000E+00
 0.00000E+00
 0.00000E+00
 0.00000E+00
 0.00000E+00
 SCALARS property1 float  1                        
LOOKUP_TABLE default
 0.00000E+00
 0.00000E+00
 0.00000E+00
 0.00000E+00
 0.00000E+00
 0.00000E+00
 0.00000E+00
 0.00000E+00
 0.00000E+00
 0.00000E+00
 0.00000E+00
 0.00000E+00
 0.00000E+00
 0.00000E+00
 0.00000E+00
 0.00000E+00
 0.00000E+00
 0.00000E+00
 0.00000E+00
 0.00000E+00
 0.00000E+00
 0.00000E+00
 0.00000E+00
 0.00000E+00
 0.00000E+00
 0.00000E+00
 0.00000E+00
 0.00000E+00
 0.00000E+00
 0.00000E+00
 0.00000E+00
 0.00000E+00
 0.00000E+00
 0.00000E+00
 0.00000E+00
 0.00000E+00
 0.00000E+00
 0.00000E+00
 0.00000E+00
 0.00000E+00
 0.00000E+00
 0.00000E+00
 0.00000E+00
 0.00000E+00
 0.00000E+00
 0.00000E+00
 0.00000E+00
 0.00000E+00
 0.00000E+00
 0.00000E+00
 0.00000E+00
 0.00000E+00
 0.00000E+00
 0.00000E+00
 0.00000E+00
 0.00000E+00
 0.00000E+00
 0.00000E+00
 0.00000E+00
 0.00000E+00
 0.00000E+00
 0.00000E+00
 0.00000E+00
 0.00000E+00
 0.00000E+00
 0.00000E+00
 0.00000E+00
 0.00000E+00
 0.00000E+00
 0.00000E+00
 0.00000E+00
 0.00000E+00
 SCALARS property2 float  1                        
LOOKUP_TABLE default
 1.26856E+00
 1.56319E+00
 1.52341E+00
 1.48880E+00
 1.47681E+00
 1.47935E+00
 1.39897E+00
 1.32897E+00
 1.38844E+00
 1.52461E+00
 1.51905E+00
 1.50489E+00
 1.47764E+00
 1.43816E+00
 1.36262E+00
 1.35406E+00
 1.36482E+00
 1.48030E+00
 1.52725E+00
 1.52404E+00
 1.36126E+00
 1.33861E+00
 1.33683E+00
 1.34966E+00
 1.29823E+00
 1.28139E+00
 1.27087E+00
 1.20616E+00
 1.20498E+00
 1.30614E+00
 1.29645E+00
 1.24055E+00
 1.25781E+00
 1.25727E+00
 1.19313E+00
 1.13340E+00
 1.13830E+00
 1.11788E+00
 1.18129E+00
 1.19449E+00
 1.11847E+00
 1.12803E+00
 1.42357E+00
 2.33423E+00
 2.52461E+00
 1.90890E+00
 1.16155E+00
 1.17294E+00
 1.03701E+00
 1.03258E+00
 1.04166E+00
 1.97853E+00
 2.16596E+00
 1.37394E+00
 1.03786E+00
 1.03142E+00
 1.00911E+00
 1.00631E+00
 1.00432E+00
 1.00000E+00
 1.00017E+00
 1.00024E+00
 1.01167E+00
 1.01463E+00
 1.00000E+00
 1.00000E+00
 1.00000E+00
 1.00000E+00
 1.00000E+00
 1.00027E+00
 1.00203E+00
 1.00854E+00
 SCALARS gradient1 float  1                        
LOOKUP_TABLE default
 0.00000E+00
 0.00000E+00
 0.00000E+00
 0.00000E+00
 0.00000E+00
 0.00000E+00
 0.00000E+00
 0.00000E+00
 0.00000E+00
 0.00000E+00
 0.00000E+00
 0.00000E+00
 0.00000E+00
 0.00000E+00
 0.00000E+00
 0.00000E+00
 0.00000E+00
 0.00000E+00
 0.00000E+00
 0.00000E+00
 0.00000E+00
 0.00000E+00
 0.00000E+00
 0.00000E+00
 0.00000E+00
 0.00000E+00
 0.00000E+00
 0.00000E+00
 0.00000E+00
 0.00000E+00
 0.00000E+00
 0.00000E+00
 0.00000E+00
 0.00000E+00
 0.00000E+00
 0.00000E+00
 0.00000E+00
 0.00000E+00
 0.00000E+00
 0.00000E+00
 0.00000E+00
 0.00000E+00
 0.00000E+00
 0.00000E+00
 0.00000E+00
 0.00000E+00
 0.00000E+00
 0.00000E+00
 0.00000E+00
 0.00000E+00
 0.00000E+00
 0.00000E+00
 0.00000E+00
 0.00000E+00
 0.00000E+00
 0.00000E+00
 0.00000E+00
 0.00000E+00
 0.00000E+00
 0.00000E+00
 0.00000E+00
 0.00000E+00
 0.00000E+00
 0.00000E+00
 0.00000E+00
 0.00000E+00
 0.00000E+00
 0.00000E+00
 0.00000E+00
 0.00000E+00
 0.00000E+00
 0.00000E+00
 SCALARS gradient2 float  1                        
LOOKUP_TABLE default
-2.76632E-04
 6.68822E-04
 3.18749E-04
-3.16881E-05
 2.15804E-04
 4.28893E-04
 1.64931E-04
-5.77746E-04
-4.99329E-04
 3.40163E-04
 2.20157E-04
 4.12674E-04
 4.59648E-04
 4.96192E-04
 2.15000E-06
-3.02722E-04
-2.86278E-04
-1.66898E-04
 4.01932E-04
 8.05687E-05
-5.23127E-04
 3.56853E-04
-3.06406E-04
 1.77035E-04
 3.06680E-04
 2.89113E-04
-4.27336E-05
 3.48965E-05
 9.64468E-06
-1.99351E-04
-1.21407E-04
-4.45692E-04
-3.79335E-06
 4.51209E-05
-1.16932E-06
-1.32770E-04
-1.24475E-04
-9.66021E-05
-2.58612E-04
 2.63993E-04
 6.35388E-05
-2.43972E-05
 8.46003E-04
 2.56473E-04
 1.42944E-04
 3.45360E-04
-1.36936E-04
 3.27858E-04
 9.07992E-05
-9.69461E-05
 1.05303E-04
-1.14314E-03
-9.76293E-04
-1.28671E-04
-6.14044E-05
-6.44768E-05
 6.21523E-05
-2.44795E-04
-1.22803E-04
 1.04544E-04
 5.65688E-05
-5.58086E-06
-7.13741E-05
-3.01737E-05
 3.03666E-05
 3.12139E-04
 3.75661E-04
 8.37607E-04
 7.75868E-04
 6.83937E-05
-1.35923E-04
 5.82122E-05
CELL_DATA          56
SCALARS elemDataMatch  float  1
LOOKUP_TABLE default
 1.40020E-05
 1.15184E-05
 1.04282E-05
 1.84250E-05
 3.40153E-05
 4.67657E-05
 7.42141E-08
 1.46763E-05
 1.27587E-05
 2.12500E-05
 3.07519E-05
 4.59120E-05
 4.08003E-05
 6.33830E-07
 8.98809E-07
 1.14256E-05
 1.52143E-05
 4.72347E-06
 3.08408E-05
 2.55082E-05
 8.70937E-07
 1.45421E-06
 2.92566E-05
 7.69549E-05
 2.33238E-05
 5.28526E-05
 9.11780E-05
 4.45189E-06
 1.23735E-06
 6.91252E-06
 6.58925E-05
 1.72983E-04
 8.70778E-05
 4.49325E-05
 7.13797E-06
 2.65993E-06
 4.76702E-06
 7.28969E-05
 1.73193E-04
 7.91393E-05
 3.28293E-05
 7.73455E-06
 2.26648E-05
 1.94049E-05
 4.85532E-05
 1.06096E-04
 3.65738E-05
 2.67795E-05
 2.09562E-06
 1.68030E-05
 1.52810E-05
 2.99870E-05
 9.30649E-05
 2.27925E-05
 3.40247E-06
 9.36909E-07
SCALARS elemRegul  float  1
LOOKUP_TABLE default
 3.03670E-04
 4.35559E-05
 3.36463E-05
 2.47064E-05
 3.82411E-05
 1.55202E-04
 7.15277E-05
 2.19689E-04
 4.31668E-05
 1.21406E-05
 1.84639E-04
 1.66588E-04
 1.19661E-04
 1.20075E-05
 2.06285E-04
 2.73998E-04
 3.12947E-04
 2.95167E-04
 1.61575E-04
 4.22018E-05
 1.20361E-04
 3.76726E-05
 1.02212E-04
 1.58935E-04
 1.00204E-04
 1.96534E-04
 2.13182E-04
 1.28412E-04
 1.89773E-04
 2.30936E-04
 5.01327E-04
 5.64525E-04
 5.46284E-04
 4.20660E-04
 2.29790E-05
 1.30161E-04
 3.22156E-04
 5.55021E-04
 3.78148E-04
 5.19889E-04
 4.73560E-04
 1.87843E-04
 2.54940E-05
 3.37266E-05
 4.73464E-04
 5.33097E-04
 5.06683E-04
 3.08220E-04
 1.71710E-05
 2.49624E-06
 1.20103E-06
 6.36374E-07
 9.82379E-10
 2.42731E-09
 4.31721E-06
 3.87630E-06
SCALARS l2grad2  float  1
LOOKUP_TABLE default
 6.04817E-02
 8.09187E-03
 6.92101E-03
 5.76103E-03
 7.27393E-03
 2.29277E-02
 1.16124E-02
 3.52469E-02
 7.73815E-03
 3.87124E-03
 2.94719E-02
 2.48293E-02
 1.79921E-02
 3.76094E-03
 3.32691E-02
 4.95717E-02
 6.28247E-02
 5.72259E-02
 2.49163E-02
 8.03625E-03
 1.79975E-02
 7.46588E-03
 1.54859E-02
 2.35346E-02
 1.50574E-02
 3.11244E-02
 3.40373E-02
 1.91371E-02
 2.90079E-02
 4.38328E-02
 2.06062E-01
 2.80721E-01
 2.54713E-01
 1.37203E-01
 5.58396E-03
 1.91262E-02
 6.94449E-02
 2.65160E-01
 9.28029E-02
 2.15799E-01
 1.66691E-01
 2.86510E-02
 5.92791E-03
 6.98463E-03
 1.80363E-01
 2.33187E-01
 2.06924E-01
 6.65492E-02
 4.71959E-03
 1.72154E-03
 1.18900E-03
 8.08843E-04
 3.16964E-05
 5.13807E-05
 2.17982E-03
 2.15197E-03
