# vtk DataFile Version 2.0
Output of NLACE
ASCII
DATASET UNSTRUCTURED_GRID
POINTS           48 FLOAT
 0.000000E+00  1.000000E+00 -5.000000E-01
 2.000000E+00  1.000000E+00 -5.000000E-01
 4.000000E+00  1.000000E+00 -5.000000E-01
 6.000000E+00  1.000000E+00 -5.000000E-01
 0.000000E+00  3.000000E+00 -5.000000E-01
 2.000000E+00  3.000000E+00 -5.000000E-01
 4.000000E+00  3.000000E+00 -5.000000E-01
 6.000000E+00  3.000000E+00 -5.000000E-01
 0.000000E+00  5.000000E+00 -5.000000E-01
 2.000000E+00  5.000000E+00 -5.000000E-01
 4.000000E+00  5.000000E+00 -5.000000E-01
 6.000000E+00  5.000000E+00 -5.000000E-01
 0.000000E+00  1.000000E+00 -2.500000E+00
 2.000000E+00  1.000000E+00 -2.500000E+00
 4.000000E+00  1.000000E+00 -2.500000E+00
 6.000000E+00  1.000000E+00 -2.500000E+00
 0.000000E+00  3.000000E+00 -2.500000E+00
 2.000000E+00  3.000000E+00 -2.500000E+00
 4.000000E+00  3.000000E+00 -2.500000E+00
 6.000000E+00  3.000000E+00 -2.500000E+00
 0.000000E+00  5.000000E+00 -2.500000E+00
 2.000000E+00  5.000000E+00 -2.500000E+00
 4.000000E+00  5.000000E+00 -2.500000E+00
 6.000000E+00  5.000000E+00 -2.500000E+00
 0.000000E+00  1.000000E+00 -4.500000E+00
 2.000000E+00  1.000000E+00 -4.500000E+00
 4.000000E+00  1.000000E+00 -4.500000E+00
 6.000000E+00  1.000000E+00 -4.500000E+00
 0.000000E+00  3.000000E+00 -4.500000E+00
 2.000000E+00  3.000000E+00 -4.500000E+00
 4.000000E+00  3.000000E+00 -4.500000E+00
 6.000000E+00  3.000000E+00 -4.500000E+00
 0.000000E+00  5.000000E+00 -4.500000E+00
 2.000000E+00  5.000000E+00 -4.500000E+00
 4.000000E+00  5.000000E+00 -4.500000E+00
 6.000000E+00  5.000000E+00 -4.500000E+00
 0.000000E+00  1.000000E+00 -6.500000E+00
 2.000000E+00  1.000000E+00 -6.500000E+00
 4.000000E+00  1.000000E+00 -6.500000E+00
 6.000000E+00  1.000000E+00 -6.500000E+00
 0.000000E+00  3.000000E+00 -6.500000E+00
 2.000000E+00  3.000000E+00 -6.500000E+00
 4.000000E+00  3.000000E+00 -6.500000E+00
 6.000000E+00  3.000000E+00 -6.500000E+00
 0.000000E+00  5.000000E+00 -6.500000E+00
 2.000000E+00  5.000000E+00 -6.500000E+00
 4.000000E+00  5.000000E+00 -6.500000E+00
 6.000000E+00  5.000000E+00 -6.500000E+00
CELLS           90         450
4    0   12   16   13
4    5   16   17   13
4    5   16   13    0
4    5    0    4   16
4    1    0    5   13
4    5   13   17   18
4    2   13   18   14
4    2   13    5   18
4    1   13    5    2
4    6    5   18    2
4    2   14   18   15
4    7   18   19   15
4    7   18   15    2
4    7    2    6   18
4    3    2    7   15
4    8   16   20   21
4    5   16   21   17
4    5   16    8   21
4    4   16    8    5
4    9    8   21    5
4    5   17   21   18
4   10   21   22   18
4   10   21   18    5
4   10    5    9   21
4    6    5   10   18
4   10   18   22   23
4    7   18   23   19
4    7   18   10   23
4    6   18   10    7
4   11   10   23    7
4   12   24   28   25
4   17   28   29   25
4   17   28   25   12
4   17   12   16   28
4   13   12   17   25
4   17   25   29   30
4   14   25   30   26
4   14   25   17   30
4   13   25   17   14
4   18   17   30   14
4   14   26   30   27
4   19   30   31   27
4   19   30   27   14
4   19   14   18   30
4   15   14   19   27
4   20   28   32   33
4   17   28   33   29
4   17   28   20   33
4   16   28   20   17
4   21   20   33   17
4   17   29   33   30
4   22   33   34   30
4   22   33   30   17
4   22   17   21   33
4   18   17   22   30
4   22   30   34   35
4   19   30   35   31
4   19   30   22   35
4   18   30   22   19
4   23   22   35   19
4   24   36   40   37
4   29   40   41   37
4   29   40   37   24
4   29   24   28   40
4   25   24   29   37
4   29   37   41   42
4   26   37   42   38
4   26   37   29   42
4   25   37   29   26
4   30   29   42   26
4   26   38   42   39
4   31   42   43   39
4   31   42   39   26
4   31   26   30   42
4   27   26   31   39
4   32   40   44   45
4   29   40   45   41
4   29   40   32   45
4   28   40   32   29
4   33   32   45   29
4   29   41   45   42
4   34   45   46   42
4   34   45   42   29
4   34   29   33   45
4   30   29   34   42
4   34   42   46   47
4   31   42   47   43
4   31   42   34   47
4   30   42   34   31
4   35   34   47   31
CELL_TYPES           90
10
10
10
10
10
10
10
10
10
10
10
10
10
10
10
10
10
10
10
10
10
10
10
10
10
10
10
10
10
10
10
10
10
10
10
10
10
10
10
10
10
10
10
10
10
10
10
10
10
10
10
10
10
10
10
10
10
10
10
10
10
10
10
10
10
10
10
10
10
10
10
10
10
10
10
10
10
10
10
10
10
10
10
10
10
10
10
10
10
10
POINT_DATA           48
 SCALARS measuredDisp11 float  1                   
LOOKUP_TABLE default
-1.00000E-01
-3.00000E-02
 3.00000E-02
 1.00000E-01
-1.00000E-01
-3.00000E-02
 3.00000E-02
 1.00000E-01
-1.00000E-01
-3.00000E-02
 3.00000E-02
 1.00000E-01
-1.00000E-01
-3.00000E-02
 3.00000E-02
 1.00000E-01
-1.00000E-01
-3.00000E-02
 3.00000E-02
 1.00000E-01
-1.00000E-01
-3.00000E-02
 3.00000E-02
 1.00000E-01
-1.00000E-01
-3.00000E-02
 3.00000E-02
 1.00000E-01
-1.00000E-01
-3.00000E-02
 3.00000E-02
 1.00000E-01
-1.00000E-01
-3.00000E-02
 3.00000E-02
 1.00000E-01
-1.00000E-01
-3.00000E-02
 3.00000E-02
 1.00000E-01
-1.00000E-01
-3.00000E-02
 3.00000E-02
 1.00000E-01
-1.00000E-01
-3.00000E-02
 3.00000E-02
 1.00000E-01
 SCALARS measuredDisp12 float  1                   
LOOKUP_TABLE default
-8.00000E-02
-8.00000E-02
-8.00000E-02
-8.00000E-02
 0.00000E+00
 0.00000E+00
 0.00000E+00
 0.00000E+00
 8.00000E-02
 8.00000E-02
 8.00000E-02
 8.00000E-02
-8.00000E-02
-8.00000E-02
-8.00000E-02
-8.00000E-02
 0.00000E+00
 0.00000E+00
 0.00000E+00
 0.00000E+00
 8.00000E-02
 8.00000E-02
 8.00000E-02
 8.00000E-02
-8.00000E-02
-8.00000E-02
-8.00000E-02
-8.00000E-02
 0.00000E+00
 0.00000E+00
 0.00000E+00
 0.00000E+00
 8.00000E-02
 8.00000E-02
 8.00000E-02
 8.00000E-02
-8.00000E-02
-8.00000E-02
-8.00000E-02
-8.00000E-02
 0.00000E+00
 0.00000E+00
 0.00000E+00
 0.00000E+00
 8.00000E-02
 8.00000E-02
 8.00000E-02
 8.00000E-02
 SCALARS measuredDisp13 float  1                   
LOOKUP_TABLE default
 1.00000E-03
 1.00000E-03
 1.00000E-03
 1.00000E-03
 1.00000E-03
 1.00000E-03
 1.00000E-03
 1.00000E-03
 1.00000E-03
 1.00000E-03
 1.00000E-03
 1.00000E-03
 7.00000E-03
 7.00000E-03
 7.00000E-03
 7.00000E-03
 7.00000E-03
 7.00000E-03
 7.00000E-03
 7.00000E-03
 7.00000E-03
 7.00000E-03
 7.00000E-03
 7.00000E-03
 1.40000E-02
 1.40000E-02
 1.40000E-02
 1.40000E-02
 1.40000E-02
 1.30000E-02
 1.30000E-02
 1.40000E-02
 1.40000E-02
 1.40000E-02
 1.40000E-02
 1.40000E-02
 2.00000E-02
 2.00000E-02
 2.00000E-02
 2.00000E-02
 2.00000E-02
 1.90000E-02
 1.90000E-02
 2.00000E-02
 2.00000E-02
 2.00000E-02
 2.00000E-02
 2.00000E-02
 SCALARS measuredDisp14 float  1                   
LOOKUP_TABLE default
 1.00000E-01
 1.00000E-01
 1.00000E-01
 1.00000E-01
 1.00000E-01
 1.00000E-01
 1.00000E-01
 1.00000E-01
 1.00000E-01
 1.00000E-01
 1.00000E-01
 1.00000E-01
 0.00000E+00
 0.00000E+00
 0.00000E+00
 0.00000E+00
 0.00000E+00
 0.00000E+00
 0.00000E+00
 0.00000E+00
 0.00000E+00
 0.00000E+00
 0.00000E+00
 0.00000E+00
 0.00000E+00
 0.00000E+00
 0.00000E+00
 0.00000E+00
 0.00000E+00
 0.00000E+00
 0.00000E+00
 0.00000E+00
 0.00000E+00
 0.00000E+00
 0.00000E+00
 0.00000E+00
 0.00000E+00
 0.00000E+00
 0.00000E+00
 0.00000E+00
 0.00000E+00
 0.00000E+00
 0.00000E+00
 0.00000E+00
 0.00000E+00
 0.00000E+00
 0.00000E+00
 0.00000E+00
 SCALARS predictedDisp11 float  1                  
LOOKUP_TABLE default
-3.29251E-02
-2.97954E-02
-2.68611E-02
-2.41242E-02
-3.31378E-02
-3.00000E-02
-2.71800E-02
-2.45769E-02
-3.34257E-02
-3.02959E-02
-2.73616E-02
-2.46247E-02
-3.30307E-02
-2.99336E-02
-2.67738E-02
-2.39094E-02
-3.31809E-02
-3.00953E-02
-2.71304E-02
-2.44577E-02
-3.35313E-02
-3.04342E-02
-2.72743E-02
-2.44099E-02
-3.28796E-02
-3.00481E-02
-2.68864E-02
-2.38324E-02
-3.28595E-02
-3.01744E-02
-2.72152E-02
-2.42284E-02
-3.33801E-02
-3.05486E-02
-2.73869E-02
-2.43329E-02
-3.27622E-02
-3.00678E-02
-2.69762E-02
-2.37818E-02
-3.28660E-02
-3.03142E-02
-2.72123E-02
-2.39173E-02
-3.32627E-02
-3.05683E-02
-2.74768E-02
-2.42824E-02
 SCALARS predictedDisp12 float  1                  
LOOKUP_TABLE default
-3.30593E-03
-3.00680E-03
-2.42644E-03
-2.22077E-03
-2.50290E-04
 0.00000E+00
 2.50250E-04
 5.00473E-04
 2.80534E-03
 3.00678E-03
 2.92696E-03
 3.22176E-03
-3.32239E-03
-3.13672E-03
-2.61041E-03
-2.40432E-03
-2.50295E-04
-1.19043E-08
 2.50256E-04
 5.00488E-04
 2.82178E-03
 3.13668E-03
 3.11094E-03
 3.40537E-03
-3.09420E-03
-2.86738E-03
-2.77867E-03
-2.52666E-03
-2.50255E-04
-2.17913E-08
 2.50246E-04
 5.00517E-04
 2.59362E-03
 2.86730E-03
 3.27918E-03
 3.52773E-03
-2.95542E-03
-2.84366E-03
-2.98658E-03
-2.63898E-03
-2.50256E-04
-3.92638E-08
 2.50246E-04
 5.00556E-04
 2.45487E-03
 2.84358E-03
 3.48707E-03
 3.64006E-03
 SCALARS predictedDisp13 float  1                  
LOOKUP_TABLE default
 1.00000E-03
 1.00000E-03
 1.00000E-03
 1.00000E-03
 1.00000E-03
 1.00000E-03
 1.00000E-03
 1.00000E-03
 1.00000E-03
 1.00000E-03
 1.00000E-03
 1.00000E-03
 7.00000E-03
 7.00000E-03
 7.00000E-03
 7.00000E-03
 7.00000E-03
 9.41827E-03
 4.85543E-03
 7.00000E-03
 7.00000E-03
 7.00000E-03
 7.00000E-03
 7.00000E-03
 1.40000E-02
 1.40000E-02
 1.40000E-02
 1.40000E-02
 1.40000E-02
 1.57782E-02
 1.12826E-02
 1.40000E-02
 1.40000E-02
 1.40000E-02
 1.40000E-02
 1.40000E-02
 2.00000E-02
 2.00000E-02
 2.00000E-02
 2.00000E-02
 2.00000E-02
 1.90000E-02
 1.90000E-02
 2.00000E-02
 2.00000E-02
 2.00000E-02
 2.00000E-02
 2.00000E-02
 SCALARS predictedDisp14 float  1                  
LOOKUP_TABLE default
 3.16361E-03
 3.14608E-03
 3.02507E-03
 3.09757E-03
 3.17613E-03
 3.15489E-03
 3.01099E-03
 3.04601E-03
 3.16361E-03
 3.14608E-03
 3.02507E-03
 3.09757E-03
 3.22770E-03
 3.19192E-03
 3.13405E-03
 3.14818E-03
 3.23303E-03
 3.19706E-03
 3.10749E-03
 3.17213E-03
 3.22770E-03
 3.19192E-03
 3.13405E-03
 3.14818E-03
 3.11501E-03
 3.09097E-03
 3.07196E-03
 3.14074E-03
 3.15223E-03
 3.01598E-03
 3.11420E-03
 3.10533E-03
 3.11501E-03
 3.09097E-03
 3.07196E-03
 3.14074E-03
 3.00117E-03
 2.86807E-03
 2.96097E-03
 2.97063E-03
 2.93876E-03
 2.83416E-03
 2.93871E-03
 2.98681E-03
 3.00117E-03
 2.86807E-03
 2.96097E-03
 2.97063E-03
 SCALARS dual11 float  1                           
LOOKUP_TABLE default
-1.52388E-05
-1.98535E-06
 3.62501E-05
 1.32843E-04
-1.35137E-05
 0.00000E+00
 6.58278E-05
 1.92985E-04
 1.43620E-05
 2.76131E-05
 6.58274E-05
 1.62423E-04
 5.11559E-05
 4.01722E-05
 6.39293E-06
 4.68241E-05
 2.86740E-05
 4.00949E-05
 4.63116E-05
 1.07283E-04
 8.07682E-05
 6.97862E-05
 3.59970E-05
 7.64243E-05
-1.37994E-06
 4.01525E-05
 3.24688E-05
 5.74455E-05
-3.96956E-05
 3.72763E-05
 7.53994E-05
 1.14283E-04
 2.82174E-05
 6.97468E-05
 6.20764E-05
 8.70478E-05
-1.32389E-04
 1.71374E-05
 9.74191E-05
 1.26325E-04
-1.79412E-04
 1.46940E-05
 1.35213E-04
 1.58480E-04
-1.02822E-04
 4.67005E-05
 1.27014E-04
 1.55920E-04
 SCALARS dual12 float  1                           
LOOKUP_TABLE default
-1.90296E-05
-4.08321E-05
-1.25911E-04
-1.31736E-04
 1.48034E-05
 0.00000E+00
-1.47950E-05
-2.95812E-05
 4.86400E-05
 4.08357E-05
 9.63170E-05
 7.25603E-05
 2.92283E-05
 1.77461E-05
-2.24904E-05
-5.68498E-05
 1.48086E-05
 5.36780E-09
-1.47976E-05
-2.95920E-05
 3.99076E-07
-1.77306E-05
-7.11221E-06
-2.34926E-06
-2.04487E-05
-4.99093E-05
-1.77465E-05
-5.52470E-05
 1.47983E-05
 5.62478E-09
-1.47936E-05
-2.95929E-05
 5.00616E-05
 4.99265E-05
-1.18483E-05
-3.95071E-06
-1.40315E-04
-1.82643E-04
-8.76464E-05
-9.01655E-05
 1.47821E-05
 4.03163E-09
-1.47866E-05
-2.95901E-05
 1.69896E-04
 1.82655E-04
 5.80679E-05
 3.09830E-05
 SCALARS dual13 float  1                           
LOOKUP_TABLE default
 0.00000E+00
 0.00000E+00
 0.00000E+00
 0.00000E+00
 0.00000E+00
 0.00000E+00
 0.00000E+00
 0.00000E+00
 0.00000E+00
 0.00000E+00
 0.00000E+00
 0.00000E+00
 0.00000E+00
 0.00000E+00
 0.00000E+00
 0.00000E+00
 0.00000E+00
-6.49744E-04
 5.36824E-04
 0.00000E+00
 0.00000E+00
 0.00000E+00
 0.00000E+00
 0.00000E+00
 0.00000E+00
 0.00000E+00
 0.00000E+00
 0.00000E+00
 0.00000E+00
-8.37573E-04
 2.91903E-04
 0.00000E+00
 0.00000E+00
 0.00000E+00
 0.00000E+00
 0.00000E+00
 0.00000E+00
 0.00000E+00
 0.00000E+00
 0.00000E+00
 0.00000E+00
 0.00000E+00
 0.00000E+00
 0.00000E+00
 0.00000E+00
 0.00000E+00
 0.00000E+00
 0.00000E+00
 SCALARS dual14 float  1                           
LOOKUP_TABLE default
-2.89471E-05
-3.14115E-05
-5.96825E-05
-4.15506E-05
-2.49907E-05
-2.59402E-05
-6.18698E-05
-5.32617E-05
-2.89471E-05
-3.14115E-05
-5.96825E-05
-4.15506E-05
-4.68246E-05
-3.27193E-05
-4.51326E-05
-3.78616E-05
-2.62966E-05
-3.49353E-05
-4.29500E-05
-3.24974E-05
-4.68246E-05
-3.27193E-05
-4.51326E-05
-3.78616E-05
-5.79953E-05
-6.03886E-05
-3.65519E-05
-2.99772E-05
-5.76893E-05
-6.52484E-05
-3.61692E-05
-2.02202E-05
-5.79953E-05
-6.03886E-05
-3.65519E-05
-2.99772E-05
-6.16166E-05
-8.41444E-05
-3.85287E-05
-2.08982E-05
-8.27741E-05
-9.26754E-05
-4.32915E-05
-2.44495E-05
-6.16166E-05
-8.41444E-05
-3.85287E-05
-2.08982E-05
 SCALARS property1 float  1                        
LOOKUP_TABLE default
 0.00000E+00
 0.00000E+00
 0.00000E+00
 0.00000E+00
 0.00000E+00
 0.00000E+00
 0.00000E+00
 0.00000E+00
 0.00000E+00
 0.00000E+00
 0.00000E+00
 0.00000E+00
 0.00000E+00
 0.00000E+00
 0.00000E+00
 0.00000E+00
 0.00000E+00
 0.00000E+00
 0.00000E+00
 0.00000E+00
 0.00000E+00
 0.00000E+00
 0.00000E+00
 0.00000E+00
 0.00000E+00
 0.00000E+00
 0.00000E+00
 0.00000E+00
 0.00000E+00
 0.00000E+00
 0.00000E+00
 0.00000E+00
 0.00000E+00
 0.00000E+00
 0.00000E+00
 0.00000E+00
 0.00000E+00
 0.00000E+00
 0.00000E+00
 0.00000E+00
 0.00000E+00
 0.00000E+00
 0.00000E+00
 0.00000E+00
 0.00000E+00
 0.00000E+00
 0.00000E+00
 0.00000E+00
 SCALARS property2 float  1                        
LOOKUP_TABLE default
 1.05002E+00
 1.05002E+00
 1.04999E+00
 1.04999E+00
 1.05003E+00
 1.05003E+00
 1.05000E+00
 1.04999E+00
 1.05002E+00
 1.05002E+00
 1.04999E+00
 1.04999E+00
 1.05002E+00
 1.05003E+00
 1.05001E+00
 1.05000E+00
 1.05003E+00
 1.05003E+00
 1.05001E+00
 1.05001E+00
 1.05002E+00
 1.05003E+00
 1.05001E+00
 1.05000E+00
 1.04998E+00
 1.05000E+00
 1.05000E+00
 1.05000E+00
 1.04999E+00
 1.04999E+00
 1.05001E+00
 1.05001E+00
 1.04998E+00
 1.05000E+00
 1.05000E+00
 1.05000E+00
 1.04996E+00
 1.04996E+00
 1.04999E+00
 1.05000E+00
 1.04995E+00
 1.04996E+00
 1.04999E+00
 1.05000E+00
 1.04996E+00
 1.04996E+00
 1.04999E+00
 1.05000E+00
 SCALARS gradient1 float  1                        
LOOKUP_TABLE default
 0.00000E+00
 0.00000E+00
 0.00000E+00
 0.00000E+00
 0.00000E+00
 0.00000E+00
 0.00000E+00
 0.00000E+00
 0.00000E+00
 0.00000E+00
 0.00000E+00
 0.00000E+00
 0.00000E+00
 0.00000E+00
 0.00000E+00
 0.00000E+00
 0.00000E+00
 0.00000E+00
 0.00000E+00
 0.00000E+00
 0.00000E+00
 0.00000E+00
 0.00000E+00
 0.00000E+00
 0.00000E+00
 0.00000E+00
 0.00000E+00
 0.00000E+00
 0.00000E+00
 0.00000E+00
 0.00000E+00
 0.00000E+00
 0.00000E+00
 0.00000E+00
 0.00000E+00
 0.00000E+00
 0.00000E+00
 0.00000E+00
 0.00000E+00
 0.00000E+00
 0.00000E+00
 0.00000E+00
 0.00000E+00
 0.00000E+00
 0.00000E+00
 0.00000E+00
 0.00000E+00
 0.00000E+00
 SCALARS gradient2 float  1                        
LOOKUP_TABLE default
-2.21409E-10
 4.58869E-09
 9.40616E-10
-2.34564E-09
 4.31651E-09
-3.96536E-09
 1.85722E-09
-6.02174E-10
-2.42006E-10
 4.58986E-09
 1.02670E-09
-2.36258E-09
-1.38502E-09
 1.86560E-09
-1.56813E-09
-4.22047E-10
 1.45515E-09
 3.41976E-10
 4.10528E-09
 4.42062E-11
-1.43764E-09
 1.87282E-09
-1.49993E-09
-3.83541E-10
-1.88216E-09
-4.67760E-10
 3.83745E-11
 3.70928E-10
-6.91395E-10
-4.03728E-09
-2.18523E-10
-2.83192E-10
-1.91378E-09
-4.97953E-10
 9.01348E-11
 4.53650E-10
 3.78117E-09
 1.53600E-09
 1.11116E-09
-5.68368E-09
 8.04349E-10
 1.43752E-09
 1.44063E-09
 1.92772E-10
 3.79465E-09
 1.44034E-09
 1.09261E-09
-5.65619E-09
CELL_DATA          90
SCALARS elemDataMatch  float  1
LOOKUP_TABLE default
 0.00000E+00
 2.33921E-06
 0.00000E+00
 0.00000E+00
 0.00000E+00
 2.10443E-06
 1.83968E-06
 3.67935E-06
 0.00000E+00
 1.83968E-06
 1.83968E-06
 1.83968E-06
 3.67935E-06
 1.83968E-06
 0.00000E+00
 0.00000E+00
 2.33921E-06
 0.00000E+00
 0.00000E+00
 0.00000E+00
 2.10443E-06
 1.83968E-06
 3.67935E-06
 0.00000E+00
 1.83968E-06
 1.83968E-06
 1.83968E-06
 3.67935E-06
 1.83968E-06
 0.00000E+00
 0.00000E+00
 8.11389E-06
 4.67843E-06
 2.33921E-06
 2.33921E-06
 5.72389E-06
 1.17984E-06
 3.71552E-06
 2.33921E-06
 3.09624E-06
 1.17984E-06
 1.17984E-06
 2.35967E-06
 4.49278E-06
 0.00000E+00
 0.00000E+00
 8.11389E-06
 4.67843E-06
 2.33921E-06
 2.33921E-06
 5.72389E-06
 1.17984E-06
 3.71552E-06
 2.33921E-06
 3.09624E-06
 1.17984E-06
 1.17984E-06
 2.35967E-06
 4.49278E-06
 0.00000E+00
 0.00000E+00
 3.08732E-06
 6.17463E-06
 3.08732E-06
 3.08732E-06
 3.08732E-06
 0.00000E+00
 6.17463E-06
 3.08732E-06
 2.35861E-06
 0.00000E+00
 0.00000E+00
 0.00000E+00
 1.17984E-06
 0.00000E+00
 0.00000E+00
 3.08732E-06
 6.17463E-06
 3.08732E-06
 3.08732E-06
 3.08732E-06
 0.00000E+00
 6.17463E-06
 3.08732E-06
 2.35861E-06
 0.00000E+00
 0.00000E+00
 0.00000E+00
 1.17984E-06
 0.00000E+00
SCALARS elemRegul  float  1
LOOKUP_TABLE default
 2.53638E-11
 6.34624E-13
 3.44374E-12
 1.75347E-12
 5.94270E-12
 1.62689E-11
 2.88122E-11
 8.48587E-11
 4.45241E-11
 7.75480E-11
 2.35732E-11
 2.64447E-11
 4.29038E-11
 2.18783E-11
 5.33398E-12
 2.53641E-11
 6.34622E-13
 3.44378E-12
 1.75349E-12
 5.94268E-12
 1.62689E-11
 2.88120E-11
 8.48582E-11
 4.45239E-11
 7.75480E-11
 2.35731E-11
 2.64447E-11
 4.29037E-11
 2.18783E-11
 5.33408E-12
 8.16494E-11
 8.66145E-11
 9.32541E-11
 8.35264E-11
 5.45433E-11
 1.11125E-10
 9.03662E-12
 5.60895E-11
 5.89570E-11
 1.59858E-11
 7.72864E-12
 3.18753E-12
 8.17841E-12
 3.75269E-12
 1.12761E-11
 8.16495E-11
 8.66145E-11
 9.32541E-11
 8.35266E-11
 5.45435E-11
 1.11125E-10
 9.03663E-12
 5.60896E-11
 5.89570E-11
 1.59858E-11
 7.72860E-12
 3.18747E-12
 8.17831E-12
 3.75268E-12
 1.12760E-11
 2.30094E-11
 4.93598E-11
 9.60799E-11
 8.93231E-11
 9.13203E-11
 9.30288E-11
 5.37018E-11
 1.02911E-10
 7.69270E-11
 5.28464E-11
 1.13493E-11
 6.43020E-12
 1.52812E-11
 2.98238E-11
 3.41562E-12
 2.30093E-11
 4.93598E-11
 9.60800E-11
 8.93232E-11
 9.13206E-11
 9.30288E-11
 5.37021E-11
 1.02912E-10
 7.69273E-11
 5.28464E-11
 1.13494E-11
 6.43019E-12
 1.52812E-11
 2.98238E-11
 3.41559E-12
SCALARS l2grad2  float  1
LOOKUP_TABLE default
 1.12792E-05
 1.78140E-06
 2.93449E-06
 2.96129E-06
 5.45303E-06
 9.02829E-06
 1.20241E-05
 1.46038E-05
 1.49619E-05
 1.97863E-05
 1.08726E-05
 1.15178E-05
 1.03705E-05
 1.04733E-05
 5.16601E-06
 1.12793E-05
 1.78139E-06
 2.93450E-06
 2.96131E-06
 5.45302E-06
 9.02829E-06
 1.20241E-05
 1.46038E-05
 1.49619E-05
 1.97863E-05
 1.08726E-05
 1.15178E-05
 1.03705E-05
 1.04733E-05
 5.16606E-06
 2.03080E-05
 2.09227E-05
 1.53132E-05
 2.05425E-05
 1.65703E-05
 2.37348E-05
 6.72563E-06
 1.18624E-05
 1.72324E-05
 8.94923E-06
 6.21937E-06
 3.99299E-06
 4.52288E-06
 4.33270E-06
 7.51397E-06
 2.03080E-05
 2.09227E-05
 1.53132E-05
 2.05425E-05
 1.65704E-05
 2.37348E-05
 6.72564E-06
 1.18624E-05
 1.72324E-05
 8.94923E-06
 6.21935E-06
 3.99296E-06
 4.52285E-06
 4.33269E-06
 7.51395E-06
 1.07414E-05
 1.57582E-05
 1.55448E-05
 2.12509E-05
 2.14898E-05
 2.16922E-05
 1.64412E-05
 1.60914E-05
 1.97062E-05
 1.63088E-05
 7.53837E-06
 5.67246E-06
 6.18380E-06
 1.22342E-05
 4.13345E-06
 1.07414E-05
 1.57582E-05
 1.55449E-05
 2.12509E-05
 2.14899E-05
 2.16922E-05
 1.64412E-05
 1.60914E-05
 1.97062E-05
 1.63088E-05
 7.53841E-06
 5.67246E-06
 6.18380E-06
 1.22342E-05
 4.13343E-06
