# vtk DataFile Version 2.0
Output of NLACE
ASCII
DATASET UNSTRUCTURED_GRID
POINTS           48 FLOAT
 0.000000E+00  1.000000E+00 -5.000000E-01
 2.000000E+00  1.000000E+00 -5.000000E-01
 4.000000E+00  1.000000E+00 -5.000000E-01
 6.000000E+00  1.000000E+00 -5.000000E-01
 0.000000E+00  3.000000E+00 -5.000000E-01
 2.000000E+00  3.000000E+00 -5.000000E-01
 4.000000E+00  3.000000E+00 -5.000000E-01
 6.000000E+00  3.000000E+00 -5.000000E-01
 0.000000E+00  5.000000E+00 -5.000000E-01
 2.000000E+00  5.000000E+00 -5.000000E-01
 4.000000E+00  5.000000E+00 -5.000000E-01
 6.000000E+00  5.000000E+00 -5.000000E-01
 0.000000E+00  1.000000E+00 -2.500000E+00
 2.000000E+00  1.000000E+00 -2.500000E+00
 4.000000E+00  1.000000E+00 -2.500000E+00
 6.000000E+00  1.000000E+00 -2.500000E+00
 0.000000E+00  3.000000E+00 -2.500000E+00
 2.000000E+00  3.000000E+00 -2.500000E+00
 4.000000E+00  3.000000E+00 -2.500000E+00
 6.000000E+00  3.000000E+00 -2.500000E+00
 0.000000E+00  5.000000E+00 -2.500000E+00
 2.000000E+00  5.000000E+00 -2.500000E+00
 4.000000E+00  5.000000E+00 -2.500000E+00
 6.000000E+00  5.000000E+00 -2.500000E+00
 0.000000E+00  1.000000E+00 -4.500000E+00
 2.000000E+00  1.000000E+00 -4.500000E+00
 4.000000E+00  1.000000E+00 -4.500000E+00
 6.000000E+00  1.000000E+00 -4.500000E+00
 0.000000E+00  3.000000E+00 -4.500000E+00
 2.000000E+00  3.000000E+00 -4.500000E+00
 4.000000E+00  3.000000E+00 -4.500000E+00
 6.000000E+00  3.000000E+00 -4.500000E+00
 0.000000E+00  5.000000E+00 -4.500000E+00
 2.000000E+00  5.000000E+00 -4.500000E+00
 4.000000E+00  5.000000E+00 -4.500000E+00
 6.000000E+00  5.000000E+00 -4.500000E+00
 0.000000E+00  1.000000E+00 -6.500000E+00
 2.000000E+00  1.000000E+00 -6.500000E+00
 4.000000E+00  1.000000E+00 -6.500000E+00
 6.000000E+00  1.000000E+00 -6.500000E+00
 0.000000E+00  3.000000E+00 -6.500000E+00
 2.000000E+00  3.000000E+00 -6.500000E+00
 4.000000E+00  3.000000E+00 -6.500000E+00
 6.000000E+00  3.000000E+00 -6.500000E+00
 0.000000E+00  5.000000E+00 -6.500000E+00
 2.000000E+00  5.000000E+00 -6.500000E+00
 4.000000E+00  5.000000E+00 -6.500000E+00
 6.000000E+00  5.000000E+00 -6.500000E+00
CELLS           90         450
4    0   12   16   13
4    5   16   17   13
4    5   16   13    0
4    5    0    4   16
4    1    0    5   13
4    5   13   17   18
4    2   13   18   14
4    2   13    5   18
4    1   13    5    2
4    6    5   18    2
4    2   14   18   15
4    7   18   19   15
4    7   18   15    2
4    7    2    6   18
4    3    2    7   15
4    8   16   20   21
4    5   16   21   17
4    5   16    8   21
4    4   16    8    5
4    9    8   21    5
4    5   17   21   18
4   10   21   22   18
4   10   21   18    5
4   10    5    9   21
4    6    5   10   18
4   10   18   22   23
4    7   18   23   19
4    7   18   10   23
4    6   18   10    7
4   11   10   23    7
4   12   24   28   25
4   17   28   29   25
4   17   28   25   12
4   17   12   16   28
4   13   12   17   25
4   17   25   29   30
4   14   25   30   26
4   14   25   17   30
4   13   25   17   14
4   18   17   30   14
4   14   26   30   27
4   19   30   31   27
4   19   30   27   14
4   19   14   18   30
4   15   14   19   27
4   20   28   32   33
4   17   28   33   29
4   17   28   20   33
4   16   28   20   17
4   21   20   33   17
4   17   29   33   30
4   22   33   34   30
4   22   33   30   17
4   22   17   21   33
4   18   17   22   30
4   22   30   34   35
4   19   30   35   31
4   19   30   22   35
4   18   30   22   19
4   23   22   35   19
4   24   36   40   37
4   29   40   41   37
4   29   40   37   24
4   29   24   28   40
4   25   24   29   37
4   29   37   41   42
4   26   37   42   38
4   26   37   29   42
4   25   37   29   26
4   30   29   42   26
4   26   38   42   39
4   31   42   43   39
4   31   42   39   26
4   31   26   30   42
4   27   26   31   39
4   32   40   44   45
4   29   40   45   41
4   29   40   32   45
4   28   40   32   29
4   33   32   45   29
4   29   41   45   42
4   34   45   46   42
4   34   45   42   29
4   34   29   33   45
4   30   29   34   42
4   34   42   46   47
4   31   42   47   43
4   31   42   34   47
4   30   42   34   31
4   35   34   47   31
CELL_TYPES           90
10
10
10
10
10
10
10
10
10
10
10
10
10
10
10
10
10
10
10
10
10
10
10
10
10
10
10
10
10
10
10
10
10
10
10
10
10
10
10
10
10
10
10
10
10
10
10
10
10
10
10
10
10
10
10
10
10
10
10
10
10
10
10
10
10
10
10
10
10
10
10
10
10
10
10
10
10
10
10
10
10
10
10
10
10
10
10
10
10
10
POINT_DATA           48
 SCALARS measuredDisp11 float  1                   
LOOKUP_TABLE default
-1.00000E-01
-3.00000E-02
 3.00000E-02
 1.00000E-01
-1.00000E-01
-3.00000E-02
 3.00000E-02
 1.00000E-01
-1.00000E-01
-3.00000E-02
 3.00000E-02
 1.00000E-01
-1.00000E-01
-3.00000E-02
 3.00000E-02
 1.00000E-01
-1.00000E-01
-3.00000E-02
 3.00000E-02
 1.00000E-01
-1.00000E-01
-3.00000E-02
 3.00000E-02
 1.00000E-01
-1.00000E-01
-3.00000E-02
 3.00000E-02
 1.00000E-01
-1.00000E-01
-3.00000E-02
 3.00000E-02
 1.00000E-01
-1.00000E-01
-3.00000E-02
 3.00000E-02
 1.00000E-01
-1.00000E-01
-3.00000E-02
 3.00000E-02
 1.00000E-01
-1.00000E-01
-3.00000E-02
 3.00000E-02
 1.00000E-01
-1.00000E-01
-3.00000E-02
 3.00000E-02
 1.00000E-01
 SCALARS measuredDisp12 float  1                   
LOOKUP_TABLE default
-8.00000E-02
-8.00000E-02
-8.00000E-02
-8.00000E-02
 0.00000E+00
 0.00000E+00
 0.00000E+00
 0.00000E+00
 8.00000E-02
 8.00000E-02
 8.00000E-02
 8.00000E-02
-8.00000E-02
-8.00000E-02
-8.00000E-02
-8.00000E-02
 0.00000E+00
 0.00000E+00
 0.00000E+00
 0.00000E+00
 8.00000E-02
 8.00000E-02
 8.00000E-02
 8.00000E-02
-8.00000E-02
-8.00000E-02
-8.00000E-02
-8.00000E-02
 0.00000E+00
 0.00000E+00
 0.00000E+00
 0.00000E+00
 8.00000E-02
 8.00000E-02
 8.00000E-02
 8.00000E-02
-8.00000E-02
-8.00000E-02
-8.00000E-02
-8.00000E-02
 0.00000E+00
 0.00000E+00
 0.00000E+00
 0.00000E+00
 8.00000E-02
 8.00000E-02
 8.00000E-02
 8.00000E-02
 SCALARS measuredDisp13 float  1                   
LOOKUP_TABLE default
 1.00000E-03
 1.00000E-03
 1.00000E-03
 1.00000E-03
 1.00000E-03
 1.00000E-03
 1.00000E-03
 1.00000E-03
 1.00000E-03
 1.00000E-03
 1.00000E-03
 1.00000E-03
 7.00000E-03
 7.00000E-03
 7.00000E-03
 7.00000E-03
 7.00000E-03
 7.00000E-03
 7.00000E-03
 7.00000E-03
 7.00000E-03
 7.00000E-03
 7.00000E-03
 7.00000E-03
 1.40000E-02
 1.40000E-02
 1.40000E-02
 1.40000E-02
 1.40000E-02
 1.30000E-02
 1.30000E-02
 1.40000E-02
 1.40000E-02
 1.40000E-02
 1.40000E-02
 1.40000E-02
 2.00000E-02
 2.00000E-02
 2.00000E-02
 2.00000E-02
 2.00000E-02
 1.90000E-02
 1.90000E-02
 2.00000E-02
 2.00000E-02
 2.00000E-02
 2.00000E-02
 2.00000E-02
 SCALARS measuredDisp14 float  1                   
LOOKUP_TABLE default
 1.00000E-01
 1.00000E-01
 1.00000E-01
 1.00000E-01
 1.00000E-01
 1.00000E-01
 1.00000E-01
 1.00000E-01
 1.00000E-01
 1.00000E-01
 1.00000E-01
 1.00000E-01
 0.00000E+00
 0.00000E+00
 0.00000E+00
 0.00000E+00
 0.00000E+00
 0.00000E+00
 0.00000E+00
 0.00000E+00
 0.00000E+00
 0.00000E+00
 0.00000E+00
 0.00000E+00
 0.00000E+00
 0.00000E+00
 0.00000E+00
 0.00000E+00
 0.00000E+00
 0.00000E+00
 0.00000E+00
 0.00000E+00
 0.00000E+00
 0.00000E+00
 0.00000E+00
 0.00000E+00
 0.00000E+00
 0.00000E+00
 0.00000E+00
 0.00000E+00
 0.00000E+00
 0.00000E+00
 0.00000E+00
 0.00000E+00
 0.00000E+00
 0.00000E+00
 0.00000E+00
 0.00000E+00
 SCALARS predictedDisp11 float  1                  
LOOKUP_TABLE default
-3.31901E-02
-3.00604E-02
-2.71261E-02
-2.43892E-02
-3.31378E-02
-3.00000E-02
-2.71800E-02
-2.45769E-02
-3.31607E-02
-3.00310E-02
-2.70966E-02
-2.43597E-02
-3.32958E-02
-3.01986E-02
-2.70388E-02
-2.41743E-02
-3.31809E-02
-3.00953E-02
-2.71303E-02
-2.44577E-02
-3.32663E-02
-3.01692E-02
-2.70093E-02
-2.41449E-02
-3.31446E-02
-3.03131E-02
-2.71514E-02
-2.40973E-02
-3.28595E-02
-3.01744E-02
-2.72152E-02
-2.42284E-02
-3.31151E-02
-3.02836E-02
-2.71219E-02
-2.40679E-02
-3.30272E-02
-3.03328E-02
-2.72412E-02
-2.40468E-02
-3.28660E-02
-3.03142E-02
-2.72123E-02
-2.39172E-02
-3.29978E-02
-3.03033E-02
-2.72118E-02
-2.40174E-02
 SCALARS predictedDisp12 float  1                  
LOOKUP_TABLE default
-3.04092E-03
-3.00680E-03
-2.69144E-03
-2.75072E-03
 1.47229E-05
 0.00000E+00
-1.47206E-05
-2.94395E-05
 3.07037E-03
 3.00681E-03
 2.66200E-03
 2.69184E-03
-3.05738E-03
-3.13671E-03
-2.87541E-03
-2.93431E-03
 1.47232E-05
 7.00246E-10
-1.47209E-05
-2.94404E-05
 3.08683E-03
 3.13672E-03
 2.84597E-03
 2.87542E-03
-2.82920E-03
-2.86735E-03
-3.04366E-03
-3.05665E-03
 1.47209E-05
 1.28184E-09
-1.47203E-05
-2.94421E-05
 2.85865E-03
 2.86736E-03
 3.01422E-03
 2.99777E-03
-2.69044E-03
-2.84363E-03
-3.25156E-03
-3.16898E-03
 1.47209E-05
 2.30963E-09
-1.47203E-05
-2.94444E-05
 2.71988E-03
 2.84364E-03
 3.22212E-03
 3.11009E-03
 SCALARS predictedDisp13 float  1                  
LOOKUP_TABLE default
 1.00000E-03
 1.00000E-03
 1.00000E-03
 1.00000E-03
 1.00000E-03
 1.00000E-03
 1.00000E-03
 1.00000E-03
 1.00000E-03
 1.00000E-03
 1.00000E-03
 1.00000E-03
 7.00000E-03
 7.00000E-03
 7.00000E-03
 7.00000E-03
 7.00000E-03
 9.41827E-03
 4.85543E-03
 7.00000E-03
 7.00000E-03
 7.00000E-03
 7.00000E-03
 7.00000E-03
 1.40000E-02
 1.40000E-02
 1.40000E-02
 1.40000E-02
 1.40000E-02
 1.57782E-02
 1.12826E-02
 1.40000E-02
 1.40000E-02
 1.40000E-02
 1.40000E-02
 1.40000E-02
 2.00000E-02
 2.00000E-02
 2.00000E-02
 2.00000E-02
 2.00000E-02
 1.90000E-02
 1.90000E-02
 2.00000E-02
 2.00000E-02
 2.00000E-02
 2.00000E-02
 2.00000E-02
 SCALARS predictedDisp14 float  1                  
LOOKUP_TABLE default
 3.16361E-03
 3.14608E-03
 3.02507E-03
 3.09757E-03
 3.17613E-03
 3.15489E-03
 3.01099E-03
 3.04601E-03
 3.16361E-03
 3.14608E-03
 3.02507E-03
 3.09757E-03
 3.22770E-03
 3.19192E-03
 3.13405E-03
 3.14818E-03
 3.23303E-03
 3.19706E-03
 3.10749E-03
 3.17213E-03
 3.22770E-03
 3.19192E-03
 3.13405E-03
 3.14818E-03
 3.11501E-03
 3.09097E-03
 3.07196E-03
 3.14074E-03
 3.15223E-03
 3.01598E-03
 3.11420E-03
 3.10533E-03
 3.11501E-03
 3.09097E-03
 3.07196E-03
 3.14074E-03
 3.00117E-03
 2.86807E-03
 2.96097E-03
 2.97063E-03
 2.93876E-03
 2.83416E-03
 2.93871E-03
 2.98681E-03
 3.00117E-03
 2.86807E-03
 2.96097E-03
 2.97063E-03
 SCALARS dual11 float  1                           
LOOKUP_TABLE default
-1.19320E-05
 1.31871E-06
 3.95435E-05
 1.36136E-04
-1.35120E-05
 0.00000E+00
 6.58260E-05
 1.92981E-04
 1.10588E-05
 2.43090E-05
 6.25304E-05
 1.59123E-04
 5.44684E-05
 4.34834E-05
 9.69889E-06
 5.01261E-05
 2.86758E-05
 4.00949E-05
 4.63098E-05
 1.07279E-04
 7.74592E-05
 6.64750E-05
 3.26874E-05
 7.31152E-05
 1.92624E-06
 4.34553E-05
 3.57756E-05
 6.07479E-05
-3.96939E-05
 3.72763E-05
 7.53976E-05
 1.14279E-04
 2.49147E-05
 6.64440E-05
 5.87660E-05
 8.37384E-05
-1.29098E-04
 2.04244E-05
 1.00718E-04
 1.29623E-04
-1.79411E-04
 1.46940E-05
 1.35212E-04
 1.58477E-04
-1.06110E-04
 4.34135E-05
 1.23711E-04
 1.52615E-04
 SCALARS dual12 float  1                           
LOOKUP_TABLE default
-2.23370E-05
-4.08319E-05
-1.22607E-04
-1.25135E-04
 1.14959E-05
 0.00000E+00
-1.14942E-05
-2.29872E-05
 4.53290E-05
 4.08323E-05
 9.96179E-05
 7.91583E-05
 2.59129E-05
 1.77411E-05
-1.91822E-05
-5.02378E-05
 1.14960E-05
 4.57348E-10
-1.14944E-05
-2.29877E-05
-2.91989E-06
-1.77392E-05
-3.80765E-06
 4.25923E-06
-2.37576E-05
-4.99146E-05
-1.44417E-05
-4.86362E-05
 1.14943E-05
 9.17746E-10
-1.14940E-05
-2.29890E-05
 4.67491E-05
 4.99177E-05
-8.54699E-06
 2.65670E-06
-1.43608E-04
-1.82646E-04
-8.43494E-05
-8.35628E-05
 1.14947E-05
 1.77062E-09
-1.14941E-05
-2.29909E-05
 1.66599E-04
 1.82649E-04
 6.13614E-05
 3.75824E-05
 SCALARS dual13 float  1                           
LOOKUP_TABLE default
 0.00000E+00
 0.00000E+00
 0.00000E+00
 0.00000E+00
 0.00000E+00
 0.00000E+00
 0.00000E+00
 0.00000E+00
 0.00000E+00
 0.00000E+00
 0.00000E+00
 0.00000E+00
 0.00000E+00
 0.00000E+00
 0.00000E+00
 0.00000E+00
 0.00000E+00
-6.49744E-04
 5.36824E-04
 0.00000E+00
 0.00000E+00
 0.00000E+00
 0.00000E+00
 0.00000E+00
 0.00000E+00
 0.00000E+00
 0.00000E+00
 0.00000E+00
 0.00000E+00
-8.37574E-04
 2.91903E-04
 0.00000E+00
 0.00000E+00
 0.00000E+00
 0.00000E+00
 0.00000E+00
 0.00000E+00
 0.00000E+00
 0.00000E+00
 0.00000E+00
 0.00000E+00
 0.00000E+00
 0.00000E+00
 0.00000E+00
 0.00000E+00
 0.00000E+00
 0.00000E+00
 0.00000E+00
 SCALARS dual14 float  1                           
LOOKUP_TABLE default
-2.89471E-05
-3.14114E-05
-5.96825E-05
-4.15506E-05
-2.49907E-05
-2.59402E-05
-6.18698E-05
-5.32616E-05
-2.89471E-05
-3.14114E-05
-5.96825E-05
-4.15506E-05
-4.68246E-05
-3.27193E-05
-4.51326E-05
-3.78616E-05
-2.62966E-05
-3.49353E-05
-4.29499E-05
-3.24973E-05
-4.68246E-05
-3.27193E-05
-4.51326E-05
-3.78616E-05
-5.79953E-05
-6.03886E-05
-3.65519E-05
-2.99772E-05
-5.76893E-05
-6.52484E-05
-3.61692E-05
-2.02202E-05
-5.79953E-05
-6.03886E-05
-3.65519E-05
-2.99772E-05
-6.16166E-05
-8.41444E-05
-3.85287E-05
-2.08982E-05
-8.27741E-05
-9.26754E-05
-4.32915E-05
-2.44495E-05
-6.16166E-05
-8.41444E-05
-3.85287E-05
-2.08982E-05
 SCALARS NLP float  1                              
LOOKUP_TABLE default
 0.00000E+00
 0.00000E+00
 0.00000E+00
 0.00000E+00
 0.00000E+00
 0.00000E+00
 0.00000E+00
 0.00000E+00
 0.00000E+00
 0.00000E+00
 0.00000E+00
 0.00000E+00
 0.00000E+00
 0.00000E+00
 0.00000E+00
 0.00000E+00
 0.00000E+00
 0.00000E+00
 0.00000E+00
 0.00000E+00
 0.00000E+00
 0.00000E+00
 0.00000E+00
 0.00000E+00
 0.00000E+00
 0.00000E+00
 0.00000E+00
 0.00000E+00
 0.00000E+00
 0.00000E+00
 0.00000E+00
 0.00000E+00
 0.00000E+00
 0.00000E+00
 0.00000E+00
 0.00000E+00
 0.00000E+00
 0.00000E+00
 0.00000E+00
 0.00000E+00
 0.00000E+00
 0.00000E+00
 0.00000E+00
 0.00000E+00
 0.00000E+00
 0.00000E+00
 0.00000E+00
 0.00000E+00
 SCALARS SM float  1                               
LOOKUP_TABLE default
 1.05002E+00
 1.05002E+00
 1.04999E+00
 1.04999E+00
 1.05003E+00
 1.05003E+00
 1.05000E+00
 1.04999E+00
 1.05002E+00
 1.05002E+00
 1.04999E+00
 1.04999E+00
 1.05001E+00
 1.05003E+00
 1.05001E+00
 1.05000E+00
 1.05003E+00
 1.05003E+00
 1.05001E+00
 1.05001E+00
 1.05001E+00
 1.05003E+00
 1.05001E+00
 1.05000E+00
 1.04998E+00
 1.05000E+00
 1.05000E+00
 1.05000E+00
 1.04999E+00
 1.04999E+00
 1.05001E+00
 1.05001E+00
 1.04998E+00
 1.05000E+00
 1.05000E+00
 1.05000E+00
 1.04996E+00
 1.04996E+00
 1.04999E+00
 1.05000E+00
 1.04995E+00
 1.04996E+00
 1.04999E+00
 1.05000E+00
 1.04996E+00
 1.04996E+00
 1.04999E+00
 1.05000E+00
 SCALARS gradient1 float  1                        
LOOKUP_TABLE default
 0.00000E+00
 0.00000E+00
 0.00000E+00
 0.00000E+00
 0.00000E+00
 0.00000E+00
 0.00000E+00
 0.00000E+00
 0.00000E+00
 0.00000E+00
 0.00000E+00
 0.00000E+00
 0.00000E+00
 0.00000E+00
 0.00000E+00
 0.00000E+00
 0.00000E+00
 0.00000E+00
 0.00000E+00
 0.00000E+00
 0.00000E+00
 0.00000E+00
 0.00000E+00
 0.00000E+00
 0.00000E+00
 0.00000E+00
 0.00000E+00
 0.00000E+00
 0.00000E+00
 0.00000E+00
 0.00000E+00
 0.00000E+00
 0.00000E+00
 0.00000E+00
 0.00000E+00
 0.00000E+00
 0.00000E+00
 0.00000E+00
 0.00000E+00
 0.00000E+00
 0.00000E+00
 0.00000E+00
 0.00000E+00
 0.00000E+00
 0.00000E+00
 0.00000E+00
 0.00000E+00
 0.00000E+00
 SCALARS gradient2 float  1                        
LOOKUP_TABLE default
 1.57880E-08
-2.55627E-08
-2.84517E-08
 2.09350E-08
 5.85575E-09
 1.27633E-07
-5.09782E-08
-3.02094E-08
 1.57886E-08
-2.55630E-08
-2.84521E-08
 2.09345E-08
-4.20215E-08
 1.07951E-07
-1.86880E-08
-3.52121E-08
 8.47258E-08
-5.10152E-07
 1.00566E-07
-5.51626E-08
-4.20210E-08
 1.07952E-07
-1.86897E-08
-3.52127E-08
-2.40370E-08
 9.42695E-08
-5.96413E-08
-4.41141E-08
 7.16025E-08
-1.60587E-07
 4.74204E-07
-9.80084E-08
-2.40366E-08
 9.42705E-08
-5.96420E-08
-4.41150E-08
-2.36494E-08
 2.60107E-08
 4.44720E-08
-6.10725E-09
 4.34140E-09
 7.59963E-08
-5.98942E-08
 1.74011E-08
-2.36490E-08
 2.60111E-08
 4.44721E-08
-6.10821E-09
CELL_DATA          90
SCALARS elemDataMatch  float  1
LOOKUP_TABLE default
 0.00000E+00
 3.89869E-07
 0.00000E+00
 0.00000E+00
 0.00000E+00
 3.50738E-07
 3.06612E-07
 6.13225E-07
 0.00000E+00
 3.06612E-07
 3.06612E-07
 3.06612E-07
 6.13225E-07
 3.06612E-07
 0.00000E+00
 0.00000E+00
 3.89869E-07
 0.00000E+00
 0.00000E+00
 0.00000E+00
 3.50738E-07
 3.06612E-07
 6.13225E-07
 0.00000E+00
 3.06612E-07
 3.06612E-07
 3.06612E-07
 6.13225E-07
 3.06612E-07
 0.00000E+00
 0.00000E+00
 1.35231E-06
 7.79738E-07
 3.89869E-07
 3.89869E-07
 9.53982E-07
 1.96639E-07
 6.19253E-07
 3.89869E-07
 5.16039E-07
 1.96639E-07
 1.96639E-07
 3.93278E-07
 7.48796E-07
 0.00000E+00
 0.00000E+00
 1.35231E-06
 7.79738E-07
 3.89869E-07
 3.89869E-07
 9.53982E-07
 1.96639E-07
 6.19253E-07
 3.89869E-07
 5.16039E-07
 1.96639E-07
 1.96639E-07
 3.93278E-07
 7.48796E-07
 0.00000E+00
 0.00000E+00
 5.14553E-07
 1.02911E-06
 5.14553E-07
 5.14553E-07
 5.14553E-07
 0.00000E+00
 1.02911E-06
 5.14553E-07
 3.93102E-07
 0.00000E+00
 0.00000E+00
 0.00000E+00
 1.96639E-07
 0.00000E+00
 0.00000E+00
 5.14553E-07
 1.02911E-06
 5.14553E-07
 5.14553E-07
 5.14553E-07
 0.00000E+00
 1.02911E-06
 5.14553E-07
 3.93102E-07
 0.00000E+00
 0.00000E+00
 0.00000E+00
 1.96639E-07
 0.00000E+00
SCALARS elemRegul  float  1
LOOKUP_TABLE default
 4.49791E-12
 4.73928E-14
 5.64484E-13
 2.86374E-13
 1.09222E-12
 2.41621E-12
 4.97686E-12
 1.46181E-11
 7.62493E-12
 1.34430E-11
 4.09977E-12
 4.50913E-12
 7.41492E-12
 3.79410E-12
 8.53500E-13
 4.49792E-12
 4.73928E-14
 5.64484E-13
 2.86375E-13
 1.09222E-12
 2.41621E-12
 4.97686E-12
 1.46181E-11
 7.62492E-12
 1.34430E-11
 4.09977E-12
 4.50913E-12
 7.41492E-12
 3.79410E-12
 8.53501E-13
 1.36969E-11
 1.39469E-11
 1.45482E-11
 1.39309E-11
 9.01916E-12
 1.83777E-11
 1.57832E-12
 8.61810E-12
 9.75665E-12
 2.41245E-12
 1.41038E-12
 6.88710E-13
 1.65200E-12
 6.91232E-13
 1.99396E-12
 1.36969E-11
 1.39469E-11
 1.45482E-11
 1.39309E-11
 9.01917E-12
 1.83777E-11
 1.57832E-12
 8.61810E-12
 9.75665E-12
 2.41245E-12
 1.41038E-12
 6.88709E-13
 1.65200E-12
 6.91231E-13
 1.99396E-12
 3.82952E-12
 7.96427E-12
 1.56839E-11
 1.50059E-11
 1.54018E-11
 1.49956E-11
 8.89481E-12
 1.68209E-11
 1.28335E-11
 9.54418E-12
 1.70256E-12
 9.97202E-13
 2.42510E-12
 5.49073E-12
 5.51609E-13
 3.82952E-12
 7.96427E-12
 1.56839E-11
 1.50059E-11
 1.54018E-11
 1.49956E-11
 8.89481E-12
 1.68209E-11
 1.28335E-11
 9.54418E-12
 1.70256E-12
 9.97202E-13
 2.42510E-12
 5.49073E-12
 5.51609E-13
SCALARS l2grad2  float  1
LOOKUP_TABLE default
 1.16358E-05
 1.19241E-06
 2.91016E-06
 2.93140E-06
 5.72654E-06
 8.52160E-06
 1.22419E-05
 1.48483E-05
 1.51676E-05
 2.01830E-05
 1.11073E-05
 1.16504E-05
 1.05609E-05
 1.06840E-05
 5.06176E-06
 1.16358E-05
 1.19241E-06
 2.91016E-06
 2.93140E-06
 5.72654E-06
 8.52160E-06
 1.22419E-05
 1.48483E-05
 1.51676E-05
 2.01830E-05
 1.11073E-05
 1.16504E-05
 1.05609E-05
 1.06840E-05
 5.06176E-06
 2.03747E-05
 2.05617E-05
 1.48126E-05
 2.05498E-05
 1.65047E-05
 2.36417E-05
 6.88517E-06
 1.13881E-05
 1.71709E-05
 8.51496E-06
 6.50816E-06
 4.54664E-06
 4.97949E-06
 4.55496E-06
 7.74004E-06
 2.03747E-05
 2.05617E-05
 1.48126E-05
 2.05498E-05
 1.65047E-05
 2.36417E-05
 6.88517E-06
 1.13881E-05
 1.71709E-05
 8.51496E-06
 6.50816E-06
 4.54664E-06
 4.97949E-06
 4.55496E-06
 7.74004E-06
 1.07339E-05
 1.55034E-05
 1.53832E-05
 2.13365E-05
 2.16192E-05
 2.13290E-05
 1.63898E-05
 1.59344E-05
 1.97158E-05
 1.69816E-05
 7.15136E-06
 5.47160E-06
 6.03404E-06
 1.28608E-05
 4.06880E-06
 1.07339E-05
 1.55034E-05
 1.53832E-05
 2.13365E-05
 2.16192E-05
 2.13290E-05
 1.63898E-05
 1.59344E-05
 1.97158E-05
 1.69816E-05
 7.15136E-06
 5.47160E-06
 6.03404E-06
 1.28608E-05
 4.06880E-06
