# vtk DataFile Version 2.0
Output of NLACE
ASCII
DATASET UNSTRUCTURED_GRID
POINTS           48 FLOAT
 0.000000E+00  1.000000E+00 -5.000000E-01
 2.000000E+00  1.000000E+00 -5.000000E-01
 4.000000E+00  1.000000E+00 -5.000000E-01
 6.000000E+00  1.000000E+00 -5.000000E-01
 0.000000E+00  3.000000E+00 -5.000000E-01
 2.000000E+00  3.000000E+00 -5.000000E-01
 4.000000E+00  3.000000E+00 -5.000000E-01
 6.000000E+00  3.000000E+00 -5.000000E-01
 0.000000E+00  5.000000E+00 -5.000000E-01
 2.000000E+00  5.000000E+00 -5.000000E-01
 4.000000E+00  5.000000E+00 -5.000000E-01
 6.000000E+00  5.000000E+00 -5.000000E-01
 0.000000E+00  1.000000E+00 -2.500000E+00
 2.000000E+00  1.000000E+00 -2.500000E+00
 4.000000E+00  1.000000E+00 -2.500000E+00
 6.000000E+00  1.000000E+00 -2.500000E+00
 0.000000E+00  3.000000E+00 -2.500000E+00
 2.000000E+00  3.000000E+00 -2.500000E+00
 4.000000E+00  3.000000E+00 -2.500000E+00
 6.000000E+00  3.000000E+00 -2.500000E+00
 0.000000E+00  5.000000E+00 -2.500000E+00
 2.000000E+00  5.000000E+00 -2.500000E+00
 4.000000E+00  5.000000E+00 -2.500000E+00
 6.000000E+00  5.000000E+00 -2.500000E+00
 0.000000E+00  1.000000E+00 -4.500000E+00
 2.000000E+00  1.000000E+00 -4.500000E+00
 4.000000E+00  1.000000E+00 -4.500000E+00
 6.000000E+00  1.000000E+00 -4.500000E+00
 0.000000E+00  3.000000E+00 -4.500000E+00
 2.000000E+00  3.000000E+00 -4.500000E+00
 4.000000E+00  3.000000E+00 -4.500000E+00
 6.000000E+00  3.000000E+00 -4.500000E+00
 0.000000E+00  5.000000E+00 -4.500000E+00
 2.000000E+00  5.000000E+00 -4.500000E+00
 4.000000E+00  5.000000E+00 -4.500000E+00
 6.000000E+00  5.000000E+00 -4.500000E+00
 0.000000E+00  1.000000E+00 -6.500000E+00
 2.000000E+00  1.000000E+00 -6.500000E+00
 4.000000E+00  1.000000E+00 -6.500000E+00
 6.000000E+00  1.000000E+00 -6.500000E+00
 0.000000E+00  3.000000E+00 -6.500000E+00
 2.000000E+00  3.000000E+00 -6.500000E+00
 4.000000E+00  3.000000E+00 -6.500000E+00
 6.000000E+00  3.000000E+00 -6.500000E+00
 0.000000E+00  5.000000E+00 -6.500000E+00
 2.000000E+00  5.000000E+00 -6.500000E+00
 4.000000E+00  5.000000E+00 -6.500000E+00
 6.000000E+00  5.000000E+00 -6.500000E+00
CELLS           90         450
4    0   12   16   13
4    5   16   17   13
4    5   16   13    0
4    5    0    4   16
4    1    0    5   13
4    5   13   17   18
4    2   13   18   14
4    2   13    5   18
4    1   13    5    2
4    6    5   18    2
4    2   14   18   15
4    7   18   19   15
4    7   18   15    2
4    7    2    6   18
4    3    2    7   15
4    8   16   20   21
4    5   16   21   17
4    5   16    8   21
4    4   16    8    5
4    9    8   21    5
4    5   17   21   18
4   10   21   22   18
4   10   21   18    5
4   10    5    9   21
4    6    5   10   18
4   10   18   22   23
4    7   18   23   19
4    7   18   10   23
4    6   18   10    7
4   11   10   23    7
4   12   24   28   25
4   17   28   29   25
4   17   28   25   12
4   17   12   16   28
4   13   12   17   25
4   17   25   29   30
4   14   25   30   26
4   14   25   17   30
4   13   25   17   14
4   18   17   30   14
4   14   26   30   27
4   19   30   31   27
4   19   30   27   14
4   19   14   18   30
4   15   14   19   27
4   20   28   32   33
4   17   28   33   29
4   17   28   20   33
4   16   28   20   17
4   21   20   33   17
4   17   29   33   30
4   22   33   34   30
4   22   33   30   17
4   22   17   21   33
4   18   17   22   30
4   22   30   34   35
4   19   30   35   31
4   19   30   22   35
4   18   30   22   19
4   23   22   35   19
4   24   36   40   37
4   29   40   41   37
4   29   40   37   24
4   29   24   28   40
4   25   24   29   37
4   29   37   41   42
4   26   37   42   38
4   26   37   29   42
4   25   37   29   26
4   30   29   42   26
4   26   38   42   39
4   31   42   43   39
4   31   42   39   26
4   31   26   30   42
4   27   26   31   39
4   32   40   44   45
4   29   40   45   41
4   29   40   32   45
4   28   40   32   29
4   33   32   45   29
4   29   41   45   42
4   34   45   46   42
4   34   45   42   29
4   34   29   33   45
4   30   29   34   42
4   34   42   46   47
4   31   42   47   43
4   31   42   34   47
4   30   42   34   31
4   35   34   47   31
CELL_TYPES           90
10
10
10
10
10
10
10
10
10
10
10
10
10
10
10
10
10
10
10
10
10
10
10
10
10
10
10
10
10
10
10
10
10
10
10
10
10
10
10
10
10
10
10
10
10
10
10
10
10
10
10
10
10
10
10
10
10
10
10
10
10
10
10
10
10
10
10
10
10
10
10
10
10
10
10
10
10
10
10
10
10
10
10
10
10
10
10
10
10
10
POINT_DATA           48
 SCALARS measuredDisp11 float  1                   
LOOKUP_TABLE default
-1.00000E-01
-3.00000E-02
 3.00000E-02
 1.00000E-01
-1.00000E-01
-3.00000E-02
 3.00000E-02
 1.00000E-01
-1.00000E-01
-3.00000E-02
 3.00000E-02
 1.00000E-01
-1.00000E-01
-3.00000E-02
 3.00000E-02
 1.00000E-01
-1.00000E-01
-3.00000E-02
 3.00000E-02
 1.00000E-01
-1.00000E-01
-3.00000E-02
 3.00000E-02
 1.00000E-01
-1.00000E-01
-3.00000E-02
 3.00000E-02
 1.00000E-01
-1.00000E-01
-3.00000E-02
 3.00000E-02
 1.00000E-01
-1.00000E-01
-3.00000E-02
 3.00000E-02
 1.00000E-01
-1.00000E-01
-3.00000E-02
 3.00000E-02
 1.00000E-01
-1.00000E-01
-3.00000E-02
 3.00000E-02
 1.00000E-01
-1.00000E-01
-3.00000E-02
 3.00000E-02
 1.00000E-01
 SCALARS measuredDisp12 float  1                   
LOOKUP_TABLE default
-8.00000E-02
-8.00000E-02
-8.00000E-02
-8.00000E-02
 0.00000E+00
 0.00000E+00
 0.00000E+00
 0.00000E+00
 8.00000E-02
 8.00000E-02
 8.00000E-02
 8.00000E-02
-8.00000E-02
-8.00000E-02
-8.00000E-02
-8.00000E-02
 0.00000E+00
 0.00000E+00
 0.00000E+00
 0.00000E+00
 8.00000E-02
 8.00000E-02
 8.00000E-02
 8.00000E-02
-8.00000E-02
-8.00000E-02
-8.00000E-02
-8.00000E-02
 0.00000E+00
 0.00000E+00
 0.00000E+00
 0.00000E+00
 8.00000E-02
 8.00000E-02
 8.00000E-02
 8.00000E-02
-8.00000E-02
-8.00000E-02
-8.00000E-02
-8.00000E-02
 0.00000E+00
 0.00000E+00
 0.00000E+00
 0.00000E+00
 8.00000E-02
 8.00000E-02
 8.00000E-02
 8.00000E-02
 SCALARS measuredDisp13 float  1                   
LOOKUP_TABLE default
 1.00000E-03
 1.00000E-03
 1.00000E-03
 1.00000E-03
 1.00000E-03
 1.00000E-03
 1.00000E-03
 1.00000E-03
 1.00000E-03
 1.00000E-03
 1.00000E-03
 1.00000E-03
 7.00000E-03
 7.00000E-03
 7.00000E-03
 7.00000E-03
 7.00000E-03
 7.00000E-03
 7.00000E-03
 7.00000E-03
 7.00000E-03
 7.00000E-03
 7.00000E-03
 7.00000E-03
 1.40000E-02
 1.40000E-02
 1.40000E-02
 1.40000E-02
 1.40000E-02
 1.30000E-02
 1.30000E-02
 1.40000E-02
 1.40000E-02
 1.40000E-02
 1.40000E-02
 1.40000E-02
 2.00000E-02
 2.00000E-02
 2.00000E-02
 2.00000E-02
 2.00000E-02
 1.90000E-02
 1.90000E-02
 2.00000E-02
 2.00000E-02
 2.00000E-02
 2.00000E-02
 2.00000E-02
 SCALARS measuredDisp14 float  1                   
LOOKUP_TABLE default
 1.00000E-01
 1.00000E-01
 1.00000E-01
 1.00000E-01
 1.00000E-01
 1.00000E-01
 1.00000E-01
 1.00000E-01
 1.00000E-01
 1.00000E-01
 1.00000E-01
 1.00000E-01
 0.00000E+00
 0.00000E+00
 0.00000E+00
 0.00000E+00
 0.00000E+00
 0.00000E+00
 0.00000E+00
 0.00000E+00
 0.00000E+00
 0.00000E+00
 0.00000E+00
 0.00000E+00
 0.00000E+00
 0.00000E+00
 0.00000E+00
 0.00000E+00
 0.00000E+00
 0.00000E+00
 0.00000E+00
 0.00000E+00
 0.00000E+00
 0.00000E+00
 0.00000E+00
 0.00000E+00
 0.00000E+00
 0.00000E+00
 0.00000E+00
 0.00000E+00
 0.00000E+00
 0.00000E+00
 0.00000E+00
 0.00000E+00
 0.00000E+00
 0.00000E+00
 0.00000E+00
 0.00000E+00
 SCALARS predictedDisp11 float  1                  
LOOKUP_TABLE default
-3.32143E-02
-3.00845E-02
-2.71502E-02
-2.44133E-02
-3.31378E-02
-3.00000E-02
-2.71800E-02
-2.45769E-02
-3.31366E-02
-3.00068E-02
-2.70725E-02
-2.43356E-02
-3.33199E-02
-3.02228E-02
-2.70629E-02
-2.41985E-02
-3.31809E-02
-3.00953E-02
-2.71304E-02
-2.44577E-02
-3.32422E-02
-3.01451E-02
-2.69852E-02
-2.41208E-02
-3.31687E-02
-3.03372E-02
-2.71755E-02
-2.41215E-02
-3.28595E-02
-3.01744E-02
-2.72152E-02
-2.42284E-02
-3.30910E-02
-3.02595E-02
-2.70978E-02
-2.40438E-02
-3.30513E-02
-3.03569E-02
-2.72654E-02
-2.40709E-02
-3.28660E-02
-3.03142E-02
-2.72123E-02
-2.39172E-02
-3.29737E-02
-3.02792E-02
-2.71876E-02
-2.39932E-02
 SCALARS predictedDisp12 float  1                  
LOOKUP_TABLE default
-3.01679E-03
-3.00680E-03
-2.71557E-03
-2.79898E-03
 3.88544E-05
 0.00000E+00
-3.88483E-05
-7.76924E-05
 3.09450E-03
 3.00681E-03
 2.63787E-03
 2.64358E-03
-3.03324E-03
-3.13671E-03
-2.89954E-03
-2.98256E-03
 3.88553E-05
 1.84799E-09
-3.88492E-05
-7.76947E-05
 3.11096E-03
 3.13672E-03
 2.82184E-03
 2.82716E-03
-2.80507E-03
-2.86735E-03
-3.06779E-03
-3.10491E-03
 3.88490E-05
 3.38284E-09
-3.88476E-05
-7.76991E-05
 2.88278E-03
 2.86736E-03
 2.99009E-03
 2.94951E-03
-2.66631E-03
-2.84363E-03
-3.27569E-03
-3.21724E-03
 3.88492E-05
 6.09523E-09
-3.88477E-05
-7.77052E-05
 2.74401E-03
 2.84364E-03
 3.19800E-03
 3.06183E-03
 SCALARS predictedDisp13 float  1                  
LOOKUP_TABLE default
 1.00000E-03
 1.00000E-03
 1.00000E-03
 1.00000E-03
 1.00000E-03
 1.00000E-03
 1.00000E-03
 1.00000E-03
 1.00000E-03
 1.00000E-03
 1.00000E-03
 1.00000E-03
 7.00000E-03
 7.00000E-03
 7.00000E-03
 7.00000E-03
 7.00000E-03
 9.41827E-03
 4.85543E-03
 7.00000E-03
 7.00000E-03
 7.00000E-03
 7.00000E-03
 7.00000E-03
 1.40000E-02
 1.40000E-02
 1.40000E-02
 1.40000E-02
 1.40000E-02
 1.57782E-02
 1.12826E-02
 1.40000E-02
 1.40000E-02
 1.40000E-02
 1.40000E-02
 1.40000E-02
 2.00000E-02
 2.00000E-02
 2.00000E-02
 2.00000E-02
 2.00000E-02
 1.90000E-02
 1.90000E-02
 2.00000E-02
 2.00000E-02
 2.00000E-02
 2.00000E-02
 2.00000E-02
 SCALARS predictedDisp14 float  1                  
LOOKUP_TABLE default
 3.16361E-03
 3.14608E-03
 3.02507E-03
 3.09757E-03
 3.17613E-03
 3.15489E-03
 3.01099E-03
 3.04601E-03
 3.16361E-03
 3.14608E-03
 3.02507E-03
 3.09757E-03
 3.22770E-03
 3.19192E-03
 3.13405E-03
 3.14818E-03
 3.23303E-03
 3.19706E-03
 3.10749E-03
 3.17213E-03
 3.22770E-03
 3.19192E-03
 3.13405E-03
 3.14818E-03
 3.11501E-03
 3.09097E-03
 3.07196E-03
 3.14074E-03
 3.15223E-03
 3.01598E-03
 3.11420E-03
 3.10533E-03
 3.11501E-03
 3.09097E-03
 3.07196E-03
 3.14074E-03
 3.00117E-03
 2.86807E-03
 2.96097E-03
 2.97063E-03
 2.93876E-03
 2.83416E-03
 2.93871E-03
 2.98681E-03
 3.00117E-03
 2.86807E-03
 2.96097E-03
 2.97063E-03
 SCALARS dual11 float  1                           
LOOKUP_TABLE default
-1.24445E-05
 8.06124E-07
 3.90303E-05
 1.35623E-04
-1.35119E-05
 0.00000E+00
 6.58260E-05
 1.92981E-04
 1.15715E-05
 2.48217E-05
 6.30435E-05
 1.59636E-04
 5.39564E-05
 4.29713E-05
 9.18658E-06
 4.96135E-05
 2.86759E-05
 4.00949E-05
 4.63097E-05
 1.07279E-04
 7.79715E-05
 6.69871E-05
 3.31996E-05
 7.36275E-05
 1.41387E-06
 4.29426E-05
 3.52633E-05
 6.02352E-05
-3.96937E-05
 3.72763E-05
 7.53975E-05
 1.14279E-04
 2.54273E-05
 6.69567E-05
 5.92782E-05
 8.42506E-05
-1.29611E-04
 1.99106E-05
 1.00205E-04
 1.29110E-04
-1.79410E-04
 1.46940E-05
 1.35211E-04
 1.58477E-04
-1.05596E-04
 4.39274E-05
 1.24224E-04
 1.53128E-04
 SCALARS dual12 float  1                           
LOOKUP_TABLE default
-2.18246E-05
-4.08319E-05
-1.23120E-04
-1.26160E-04
 1.20082E-05
 0.00000E+00
-1.20069E-05
-2.40133E-05
 4.58412E-05
 4.08322E-05
 9.91052E-05
 7.81325E-05
 2.64247E-05
 1.77407E-05
-1.96946E-05
-5.12627E-05
 1.20080E-05
 1.16075E-10
-1.20070E-05
-2.40130E-05
-2.40828E-06
-1.77398E-05
-4.32013E-06
 3.23415E-06
-2.32454E-05
-4.99148E-05
-1.49542E-05
-4.96611E-05
 1.20069E-05
 6.22413E-10
-1.20068E-05
-2.40145E-05
 4.72612E-05
 4.99172E-05
-9.05975E-06
 1.63145E-06
-1.43095E-04
-1.82646E-04
-8.48625E-05
-8.45884E-05
 1.20085E-05
 1.71698E-09
-1.20075E-05
-2.40168E-05
 1.67112E-04
 1.82649E-04
 6.08481E-05
 3.65565E-05
 SCALARS dual13 float  1                           
LOOKUP_TABLE default
 0.00000E+00
 0.00000E+00
 0.00000E+00
 0.00000E+00
 0.00000E+00
 0.00000E+00
 0.00000E+00
 0.00000E+00
 0.00000E+00
 0.00000E+00
 0.00000E+00
 0.00000E+00
 0.00000E+00
 0.00000E+00
 0.00000E+00
 0.00000E+00
 0.00000E+00
-6.49744E-04
 5.36824E-04
 0.00000E+00
 0.00000E+00
 0.00000E+00
 0.00000E+00
 0.00000E+00
 0.00000E+00
 0.00000E+00
 0.00000E+00
 0.00000E+00
 0.00000E+00
-8.37573E-04
 2.91903E-04
 0.00000E+00
 0.00000E+00
 0.00000E+00
 0.00000E+00
 0.00000E+00
 0.00000E+00
 0.00000E+00
 0.00000E+00
 0.00000E+00
 0.00000E+00
 0.00000E+00
 0.00000E+00
 0.00000E+00
 0.00000E+00
 0.00000E+00
 0.00000E+00
 0.00000E+00
 SCALARS dual14 float  1                           
LOOKUP_TABLE default
-2.89471E-05
-3.14115E-05
-5.96825E-05
-4.15506E-05
-2.49907E-05
-2.59402E-05
-6.18698E-05
-5.32617E-05
-2.89471E-05
-3.14115E-05
-5.96825E-05
-4.15506E-05
-4.68246E-05
-3.27193E-05
-4.51326E-05
-3.78616E-05
-2.62966E-05
-3.49353E-05
-4.29500E-05
-3.24974E-05
-4.68246E-05
-3.27193E-05
-4.51326E-05
-3.78616E-05
-5.79953E-05
-6.03886E-05
-3.65519E-05
-2.99772E-05
-5.76893E-05
-6.52484E-05
-3.61692E-05
-2.02202E-05
-5.79953E-05
-6.03886E-05
-3.65519E-05
-2.99772E-05
-6.16166E-05
-8.41444E-05
-3.85287E-05
-2.08982E-05
-8.27741E-05
-9.26754E-05
-4.32915E-05
-2.44495E-05
-6.16166E-05
-8.41444E-05
-3.85287E-05
-2.08982E-05
 SCALARS NLP float  1                              
LOOKUP_TABLE default
 0.00000E+00
 0.00000E+00
 0.00000E+00
 0.00000E+00
 0.00000E+00
 0.00000E+00
 0.00000E+00
 0.00000E+00
 0.00000E+00
 0.00000E+00
 0.00000E+00
 0.00000E+00
 0.00000E+00
 0.00000E+00
 0.00000E+00
 0.00000E+00
 0.00000E+00
 0.00000E+00
 0.00000E+00
 0.00000E+00
 0.00000E+00
 0.00000E+00
 0.00000E+00
 0.00000E+00
 0.00000E+00
 0.00000E+00
 0.00000E+00
 0.00000E+00
 0.00000E+00
 0.00000E+00
 0.00000E+00
 0.00000E+00
 0.00000E+00
 0.00000E+00
 0.00000E+00
 0.00000E+00
 0.00000E+00
 0.00000E+00
 0.00000E+00
 0.00000E+00
 0.00000E+00
 0.00000E+00
 0.00000E+00
 0.00000E+00
 0.00000E+00
 0.00000E+00
 0.00000E+00
 0.00000E+00
 SCALARS SM float  1                               
LOOKUP_TABLE default
 1.05002E+00
 1.05002E+00
 1.04999E+00
 1.04999E+00
 1.05003E+00
 1.05003E+00
 1.05000E+00
 1.04999E+00
 1.05002E+00
 1.05002E+00
 1.04999E+00
 1.04999E+00
 1.05002E+00
 1.05003E+00
 1.05001E+00
 1.05000E+00
 1.05003E+00
 1.05003E+00
 1.05001E+00
 1.05001E+00
 1.05002E+00
 1.05003E+00
 1.05001E+00
 1.05000E+00
 1.04998E+00
 1.05000E+00
 1.05000E+00
 1.05000E+00
 1.04999E+00
 1.04999E+00
 1.05001E+00
 1.05001E+00
 1.04998E+00
 1.05000E+00
 1.05000E+00
 1.05000E+00
 1.04996E+00
 1.04996E+00
 1.04999E+00
 1.05000E+00
 1.04995E+00
 1.04996E+00
 1.04999E+00
 1.05000E+00
 1.04996E+00
 1.04996E+00
 1.04999E+00
 1.05000E+00
 SCALARS gradient1 float  1                        
LOOKUP_TABLE default
 0.00000E+00
 0.00000E+00
 0.00000E+00
 0.00000E+00
 0.00000E+00
 0.00000E+00
 0.00000E+00
 0.00000E+00
 0.00000E+00
 0.00000E+00
 0.00000E+00
 0.00000E+00
 0.00000E+00
 0.00000E+00
 0.00000E+00
 0.00000E+00
 0.00000E+00
 0.00000E+00
 0.00000E+00
 0.00000E+00
 0.00000E+00
 0.00000E+00
 0.00000E+00
 0.00000E+00
 0.00000E+00
 0.00000E+00
 0.00000E+00
 0.00000E+00
 0.00000E+00
 0.00000E+00
 0.00000E+00
 0.00000E+00
 0.00000E+00
 0.00000E+00
 0.00000E+00
 0.00000E+00
 0.00000E+00
 0.00000E+00
 0.00000E+00
 0.00000E+00
 0.00000E+00
 0.00000E+00
 0.00000E+00
 0.00000E+00
 0.00000E+00
 0.00000E+00
 0.00000E+00
 0.00000E+00
 SCALARS gradient2 float  1                        
LOOKUP_TABLE default
-3.42175E-11
 5.20065E-10
 3.38053E-10
-2.64883E-10
 7.59601E-10
 3.21734E-10
 3.17446E-10
-6.42343E-10
-3.28130E-11
 5.19531E-10
 3.35525E-10
-2.65099E-10
-3.31794E-11
-1.70726E-11
 4.10391E-10
-1.00935E-10
-1.17821E-11
 1.19065E-09
-2.03729E-09
 1.84966E-10
-3.12020E-11
-1.69574E-11
 4.08241E-10
-1.03489E-10
-8.74931E-11
-1.01576E-10
-1.13782E-10
-1.06681E-10
-3.17209E-10
 9.75868E-11
 2.82879E-10
-1.34226E-10
-8.57186E-11
-1.00559E-10
-1.14982E-10
-1.10236E-10
 9.79420E-10
 4.96463E-10
-9.05079E-11
-1.17050E-09
-1.93610E-10
 1.54113E-10
-2.77002E-11
 4.52405E-11
 9.79719E-10
 4.98865E-10
-8.99533E-11
-1.17267E-09
CELL_DATA          90
SCALARS elemDataMatch  float  1
LOOKUP_TABLE default
 0.00000E+00
 3.89869E-07
 0.00000E+00
 0.00000E+00
 0.00000E+00
 3.50738E-07
 3.06613E-07
 6.13225E-07
 0.00000E+00
 3.06613E-07
 3.06613E-07
 3.06613E-07
 6.13225E-07
 3.06613E-07
 0.00000E+00
 0.00000E+00
 3.89869E-07
 0.00000E+00
 0.00000E+00
 0.00000E+00
 3.50738E-07
 3.06613E-07
 6.13225E-07
 0.00000E+00
 3.06613E-07
 3.06613E-07
 3.06613E-07
 6.13225E-07
 3.06613E-07
 0.00000E+00
 0.00000E+00
 1.35231E-06
 7.79738E-07
 3.89869E-07
 3.89869E-07
 9.53982E-07
 1.96639E-07
 6.19253E-07
 3.89869E-07
 5.16040E-07
 1.96639E-07
 1.96639E-07
 3.93278E-07
 7.48796E-07
 0.00000E+00
 0.00000E+00
 1.35231E-06
 7.79738E-07
 3.89869E-07
 3.89869E-07
 9.53982E-07
 1.96639E-07
 6.19253E-07
 3.89869E-07
 5.16040E-07
 1.96639E-07
 1.96639E-07
 3.93278E-07
 7.48796E-07
 0.00000E+00
 0.00000E+00
 5.14553E-07
 1.02911E-06
 5.14553E-07
 5.14553E-07
 5.14553E-07
 0.00000E+00
 1.02911E-06
 5.14553E-07
 3.93102E-07
 0.00000E+00
 0.00000E+00
 0.00000E+00
 1.96639E-07
 0.00000E+00
 0.00000E+00
 5.14553E-07
 1.02911E-06
 5.14553E-07
 5.14553E-07
 5.14553E-07
 0.00000E+00
 1.02911E-06
 5.14553E-07
 3.93102E-07
 0.00000E+00
 0.00000E+00
 0.00000E+00
 1.96639E-07
 0.00000E+00
SCALARS elemRegul  float  1
LOOKUP_TABLE default
 4.22577E-12
 1.05942E-13
 5.74128E-13
 2.92317E-13
 9.91324E-13
 2.71439E-12
 4.80206E-12
 1.41461E-11
 7.42134E-12
 1.29273E-11
 3.92945E-12
 4.40792E-12
 7.15001E-12
 3.64592E-12
 8.89270E-13
 4.22577E-12
 1.05943E-13
 5.74127E-13
 2.92316E-13
 9.91325E-13
 2.71439E-12
 4.80206E-12
 1.41461E-11
 7.42134E-12
 1.29273E-11
 3.92945E-12
 4.40792E-12
 7.15001E-12
 3.64592E-12
 8.89269E-13
 1.36053E-11
 1.44353E-11
 1.55429E-11
 1.39200E-11
 9.08897E-12
 1.85187E-11
 1.50615E-12
 9.34897E-12
 9.82544E-12
 2.66677E-12
 1.28862E-12
 5.31572E-13
 1.36410E-12
 6.24765E-13
 1.87978E-12
 1.36053E-11
 1.44353E-11
 1.55429E-11
 1.39200E-11
 9.08897E-12
 1.85187E-11
 1.50615E-12
 9.34897E-12
 9.82544E-12
 2.66677E-12
 1.28862E-12
 5.31573E-13
 1.36410E-12
 6.24765E-13
 1.87978E-12
 3.83468E-12
 8.22722E-12
 1.60143E-11
 1.48866E-11
 1.52178E-11
 1.55029E-11
 8.94659E-12
 1.71471E-11
 1.28196E-11
 8.80671E-12
 1.89208E-12
 1.07175E-12
 2.54734E-12
 4.97167E-12
 5.69685E-13
 3.83468E-12
 8.22722E-12
 1.60143E-11
 1.48866E-11
 1.52178E-11
 1.55029E-11
 8.94659E-12
 1.71471E-11
 1.28196E-11
 8.80671E-12
 1.89208E-12
 1.07175E-12
 2.54734E-12
 4.97167E-12
 5.69686E-13
SCALARS l2grad2  float  1
LOOKUP_TABLE default
 1.12772E-05
 1.78284E-06
 2.93492E-06
 2.96166E-06
 5.45544E-06
 9.03313E-06
 1.20242E-05
 1.46054E-05
 1.49626E-05
 1.97883E-05
 1.08734E-05
 1.15185E-05
 1.03700E-05
 1.04727E-05
 5.16681E-06
 1.12772E-05
 1.78284E-06
 2.93492E-06
 2.96166E-06
 5.45544E-06
 9.03313E-06
 1.20242E-05
 1.46054E-05
 1.49626E-05
 1.97883E-05
 1.08734E-05
 1.15185E-05
 1.03700E-05
 1.04727E-05
 5.16680E-06
 2.03058E-05
 2.09224E-05
 1.53135E-05
 2.05417E-05
 1.65689E-05
 2.37334E-05
 6.72573E-06
 1.18628E-05
 1.72318E-05
 8.95338E-06
 6.22061E-06
 3.99419E-06
 4.52459E-06
 4.33033E-06
 7.51484E-06
 2.03058E-05
 2.09224E-05
 1.53135E-05
 2.05417E-05
 1.65689E-05
 2.37334E-05
 6.72573E-06
 1.18628E-05
 1.72318E-05
 8.95338E-06
 6.22061E-06
 3.99419E-06
 4.52460E-06
 4.33033E-06
 7.51485E-06
 1.07411E-05
 1.57588E-05
 1.55453E-05
 2.12505E-05
 2.14882E-05
 2.16909E-05
 1.64377E-05
 1.60892E-05
 1.97050E-05
 1.63079E-05
 7.53943E-06
 5.67258E-06
 6.18439E-06
 1.22354E-05
 4.13495E-06
 1.07411E-05
 1.57588E-05
 1.55453E-05
 2.12505E-05
 2.14882E-05
 2.16909E-05
 1.64377E-05
 1.60892E-05
 1.97050E-05
 1.63079E-05
 7.53943E-06
 5.67259E-06
 6.18439E-06
 1.22354E-05
 4.13496E-06
