# vtk DataFile Version 2.0
Output of NLACE
ASCII
DATASET UNSTRUCTURED_GRID
POINTS          216 FLOAT
 0.000000E+00  0.000000E+00  0.000000E+00
 2.000000E+00  0.000000E+00 -1.600000E+00
 4.000000E+00  0.000000E+00 -2.400000E+00
 6.000000E+00  0.000000E+00 -2.400000E+00
 8.000000E+00  0.000000E+00 -1.600000E+00
 1.000000E+01  0.000000E+00  0.000000E+00
 0.000000E+00  2.000000E+00  0.000000E+00
 2.000000E+00  2.000000E+00 -1.600000E+00
 4.000000E+00  2.000000E+00 -2.400000E+00
 6.000000E+00  2.000000E+00 -2.400000E+00
 8.000000E+00  2.000000E+00 -1.600000E+00
 1.000000E+01  2.000000E+00  0.000000E+00
 0.000000E+00  4.000000E+00  0.000000E+00
 2.000000E+00  4.000000E+00 -1.600000E+00
 4.000000E+00  4.000000E+00 -2.400000E+00
 6.000000E+00  4.000000E+00 -2.400000E+00
 8.000000E+00  4.000000E+00 -1.600000E+00
 1.000000E+01  4.000000E+00  0.000000E+00
 0.000000E+00  6.000000E+00  0.000000E+00
 2.000000E+00  6.000000E+00 -1.600000E+00
 4.000000E+00  6.000000E+00 -2.400000E+00
 6.000000E+00  6.000000E+00 -2.400000E+00
 8.000000E+00  6.000000E+00 -1.600000E+00
 1.000000E+01  6.000000E+00  0.000000E+00
 0.000000E+00  8.000000E+00  0.000000E+00
 2.000000E+00  8.000000E+00 -1.600000E+00
 4.000000E+00  8.000000E+00 -2.400000E+00
 6.000000E+00  8.000000E+00 -2.400000E+00
 8.000000E+00  8.000000E+00 -1.600000E+00
 1.000000E+01  8.000000E+00  0.000000E+00
 0.000000E+00  1.000000E+01  0.000000E+00
 2.000000E+00  1.000000E+01 -1.600000E+00
 4.000000E+00  1.000000E+01 -2.400000E+00
 6.000000E+00  1.000000E+01 -2.400000E+00
 8.000000E+00  1.000000E+01 -1.600000E+00
 1.000000E+01  1.000000E+01  0.000000E+00
 0.000000E+00  0.000000E+00 -2.000000E+00
 2.000000E+00  0.000000E+00 -3.600000E+00
 4.000000E+00  0.000000E+00 -4.400000E+00
 6.000000E+00  0.000000E+00 -4.400000E+00
 8.000000E+00  0.000000E+00 -3.600000E+00
 1.000000E+01  0.000000E+00 -2.000000E+00
 0.000000E+00  2.000000E+00 -2.000000E+00
 2.000000E+00  2.000000E+00 -3.600000E+00
 4.000000E+00  2.000000E+00 -4.400000E+00
 6.000000E+00  2.000000E+00 -4.400000E+00
 8.000000E+00  2.000000E+00 -3.600000E+00
 1.000000E+01  2.000000E+00 -2.000000E+00
 0.000000E+00  4.000000E+00 -2.000000E+00
 2.000000E+00  4.000000E+00 -3.600000E+00
 4.000000E+00  4.000000E+00 -4.400000E+00
 6.000000E+00  4.000000E+00 -4.400000E+00
 8.000000E+00  4.000000E+00 -3.600000E+00
 1.000000E+01  4.000000E+00 -2.000000E+00
 0.000000E+00  6.000000E+00 -2.000000E+00
 2.000000E+00  6.000000E+00 -3.600000E+00
 4.000000E+00  6.000000E+00 -4.400000E+00
 6.000000E+00  6.000000E+00 -4.400000E+00
 8.000000E+00  6.000000E+00 -3.600000E+00
 1.000000E+01  6.000000E+00 -2.000000E+00
 0.000000E+00  8.000000E+00 -2.000000E+00
 2.000000E+00  8.000000E+00 -3.600000E+00
 4.000000E+00  8.000000E+00 -4.400000E+00
 6.000000E+00  8.000000E+00 -4.400000E+00
 8.000000E+00  8.000000E+00 -3.600000E+00
 1.000000E+01  8.000000E+00 -2.000000E+00
 0.000000E+00  1.000000E+01 -2.000000E+00
 2.000000E+00  1.000000E+01 -3.600000E+00
 4.000000E+00  1.000000E+01 -4.400000E+00
 6.000000E+00  1.000000E+01 -4.400000E+00
 8.000000E+00  1.000000E+01 -3.600000E+00
 1.000000E+01  1.000000E+01 -2.000000E+00
 0.000000E+00  0.000000E+00 -4.000000E+00
 2.000000E+00  0.000000E+00 -5.600000E+00
 4.000000E+00  0.000000E+00 -6.400000E+00
 6.000000E+00  0.000000E+00 -6.400000E+00
 8.000000E+00  0.000000E+00 -5.600000E+00
 1.000000E+01  0.000000E+00 -4.000000E+00
 0.000000E+00  2.000000E+00 -4.000000E+00
 2.000000E+00  2.000000E+00 -5.600000E+00
 4.000000E+00  2.000000E+00 -6.400000E+00
 6.000000E+00  2.000000E+00 -6.400000E+00
 8.000000E+00  2.000000E+00 -5.600000E+00
 1.000000E+01  2.000000E+00 -4.000000E+00
 0.000000E+00  4.000000E+00 -4.000000E+00
 2.000000E+00  4.000000E+00 -5.600000E+00
 4.000000E+00  4.000000E+00 -6.400000E+00
 6.000000E+00  4.000000E+00 -6.400000E+00
 8.000000E+00  4.000000E+00 -5.600000E+00
 1.000000E+01  4.000000E+00 -4.000000E+00
 0.000000E+00  6.000000E+00 -4.000000E+00
 2.000000E+00  6.000000E+00 -5.600000E+00
 4.000000E+00  6.000000E+00 -6.400000E+00
 6.000000E+00  6.000000E+00 -6.400000E+00
 8.000000E+00  6.000000E+00 -5.600000E+00
 1.000000E+01  6.000000E+00 -4.000000E+00
 0.000000E+00  8.000000E+00 -4.000000E+00
 2.000000E+00  8.000000E+00 -5.600000E+00
 4.000000E+00  8.000000E+00 -6.400000E+00
 6.000000E+00  8.000000E+00 -6.400000E+00
 8.000000E+00  8.000000E+00 -5.600000E+00
 1.000000E+01  8.000000E+00 -4.000000E+00
 0.000000E+00  1.000000E+01 -4.000000E+00
 2.000000E+00  1.000000E+01 -5.600000E+00
 4.000000E+00  1.000000E+01 -6.400000E+00
 6.000000E+00  1.000000E+01 -6.400000E+00
 8.000000E+00  1.000000E+01 -5.600000E+00
 1.000000E+01  1.000000E+01 -4.000000E+00
 0.000000E+00  0.000000E+00 -6.000000E+00
 2.000000E+00  0.000000E+00 -7.600000E+00
 4.000000E+00  0.000000E+00 -8.400000E+00
 6.000000E+00  0.000000E+00 -8.400000E+00
 8.000000E+00  0.000000E+00 -7.600000E+00
 1.000000E+01  0.000000E+00 -6.000000E+00
 0.000000E+00  2.000000E+00 -6.000000E+00
 2.000000E+00  2.000000E+00 -7.600000E+00
 4.000000E+00  2.000000E+00 -8.400000E+00
 6.000000E+00  2.000000E+00 -8.400000E+00
 8.000000E+00  2.000000E+00 -7.600000E+00
 1.000000E+01  2.000000E+00 -6.000000E+00
 0.000000E+00  4.000000E+00 -6.000000E+00
 2.000000E+00  4.000000E+00 -7.600000E+00
 4.000000E+00  4.000000E+00 -8.400000E+00
 6.000000E+00  4.000000E+00 -8.400000E+00
 8.000000E+00  4.000000E+00 -7.600000E+00
 1.000000E+01  4.000000E+00 -6.000000E+00
 0.000000E+00  6.000000E+00 -6.000000E+00
 2.000000E+00  6.000000E+00 -7.600000E+00
 4.000000E+00  6.000000E+00 -8.400000E+00
 6.000000E+00  6.000000E+00 -8.400000E+00
 8.000000E+00  6.000000E+00 -7.600000E+00
 1.000000E+01  6.000000E+00 -6.000000E+00
 0.000000E+00  8.000000E+00 -6.000000E+00
 2.000000E+00  8.000000E+00 -7.600000E+00
 4.000000E+00  8.000000E+00 -8.400000E+00
 6.000000E+00  8.000000E+00 -8.400000E+00
 8.000000E+00  8.000000E+00 -7.600000E+00
 1.000000E+01  8.000000E+00 -6.000000E+00
 0.000000E+00  1.000000E+01 -6.000000E+00
 2.000000E+00  1.000000E+01 -7.600000E+00
 4.000000E+00  1.000000E+01 -8.400000E+00
 6.000000E+00  1.000000E+01 -8.400000E+00
 8.000000E+00  1.000000E+01 -7.600000E+00
 1.000000E+01  1.000000E+01 -6.000000E+00
 0.000000E+00  0.000000E+00 -8.000000E+00
 2.000000E+00  0.000000E+00 -9.600000E+00
 4.000000E+00  0.000000E+00 -1.040000E+01
 6.000000E+00  0.000000E+00 -1.040000E+01
 8.000000E+00  0.000000E+00 -9.600000E+00
 1.000000E+01  0.000000E+00 -8.000000E+00
 0.000000E+00  2.000000E+00 -8.000000E+00
 2.000000E+00  2.000000E+00 -9.600000E+00
 4.000000E+00  2.000000E+00 -1.040000E+01
 6.000000E+00  2.000000E+00 -1.040000E+01
 8.000000E+00  2.000000E+00 -9.600000E+00
 1.000000E+01  2.000000E+00 -8.000000E+00
 0.000000E+00  4.000000E+00 -8.000000E+00
 2.000000E+00  4.000000E+00 -9.600000E+00
 4.000000E+00  4.000000E+00 -1.040000E+01
 6.000000E+00  4.000000E+00 -1.040000E+01
 8.000000E+00  4.000000E+00 -9.600000E+00
 1.000000E+01  4.000000E+00 -8.000000E+00
 0.000000E+00  6.000000E+00 -8.000000E+00
 2.000000E+00  6.000000E+00 -9.600000E+00
 4.000000E+00  6.000000E+00 -1.040000E+01
 6.000000E+00  6.000000E+00 -1.040000E+01
 8.000000E+00  6.000000E+00 -9.600000E+00
 1.000000E+01  6.000000E+00 -8.000000E+00
 0.000000E+00  8.000000E+00 -8.000000E+00
 2.000000E+00  8.000000E+00 -9.600000E+00
 4.000000E+00  8.000000E+00 -1.040000E+01
 6.000000E+00  8.000000E+00 -1.040000E+01
 8.000000E+00  8.000000E+00 -9.600000E+00
 1.000000E+01  8.000000E+00 -8.000000E+00
 0.000000E+00  1.000000E+01 -8.000000E+00
 2.000000E+00  1.000000E+01 -9.600000E+00
 4.000000E+00  1.000000E+01 -1.040000E+01
 6.000000E+00  1.000000E+01 -1.040000E+01
 8.000000E+00  1.000000E+01 -9.600000E+00
 1.000000E+01  1.000000E+01 -8.000000E+00
 0.000000E+00  0.000000E+00 -1.000000E+01
 2.000000E+00  0.000000E+00 -1.160000E+01
 4.000000E+00  0.000000E+00 -1.240000E+01
 6.000000E+00  0.000000E+00 -1.240000E+01
 8.000000E+00  0.000000E+00 -1.160000E+01
 1.000000E+01  0.000000E+00 -1.000000E+01
 0.000000E+00  2.000000E+00 -1.000000E+01
 2.000000E+00  2.000000E+00 -1.160000E+01
 4.000000E+00  2.000000E+00 -1.240000E+01
 6.000000E+00  2.000000E+00 -1.240000E+01
 8.000000E+00  2.000000E+00 -1.160000E+01
 1.000000E+01  2.000000E+00 -1.000000E+01
 0.000000E+00  4.000000E+00 -1.000000E+01
 2.000000E+00  4.000000E+00 -1.160000E+01
 4.000000E+00  4.000000E+00 -1.240000E+01
 6.000000E+00  4.000000E+00 -1.240000E+01
 8.000000E+00  4.000000E+00 -1.160000E+01
 1.000000E+01  4.000000E+00 -1.000000E+01
 0.000000E+00  6.000000E+00 -1.000000E+01
 2.000000E+00  6.000000E+00 -1.160000E+01
 4.000000E+00  6.000000E+00 -1.240000E+01
 6.000000E+00  6.000000E+00 -1.240000E+01
 8.000000E+00  6.000000E+00 -1.160000E+01
 1.000000E+01  6.000000E+00 -1.000000E+01
 0.000000E+00  8.000000E+00 -1.000000E+01
 2.000000E+00  8.000000E+00 -1.160000E+01
 4.000000E+00  8.000000E+00 -1.240000E+01
 6.000000E+00  8.000000E+00 -1.240000E+01
 8.000000E+00  8.000000E+00 -1.160000E+01
 1.000000E+01  8.000000E+00 -1.000000E+01
 0.000000E+00  1.000000E+01 -1.000000E+01
 2.000000E+00  1.000000E+01 -1.160000E+01
 4.000000E+00  1.000000E+01 -1.240000E+01
 6.000000E+00  1.000000E+01 -1.240000E+01
 8.000000E+00  1.000000E+01 -1.160000E+01
 1.000000E+01  1.000000E+01 -1.000000E+01
CELLS          625        3125
4    0   36   42   37
4    7   42   43   37
4    7   42   37    0
4    7    0    6   42
4    1    0    7   37
4    7   37   43   44
4    2   37   44   38
4    2   37    7   44
4    1   37    7    2
4    8    7   44    2
4    2   38   44   39
4    9   44   45   39
4    9   44   39    2
4    9    2    8   44
4    3    2    9   39
4    9   39   45   46
4    4   39   46   40
4    4   39    9   46
4    3   39    9    4
4   10    9   46    4
4    4   40   46   41
4   11   46   47   41
4   11   46   41    4
4   11    4   10   46
4    5    4   11   41
4   12   42   48   49
4    7   42   49   43
4    7   42   12   49
4    6   42   12    7
4   13   12   49    7
4    7   43   49   44
4   14   49   50   44
4   14   49   44    7
4   14    7   13   49
4    8    7   14   44
4   14   44   50   51
[...]
POINT_DATA          216
 SCALARS measuredDisp11 float  1                   
LOOKUP_TABLE default
 0.00000E+00
 1.88575E-02
 2.67466E-02
 3.74570E-02
 5.76147E-02
 6.59442E-02
-5.86843E-03
 2.33853E-03
 2.70962E-02
 4.49220E-02
 5.68324E-02
 7.76293E-02
-1.36728E-02
 7.81025E-03
 2.13778E-02
 4.06866E-02
 6.63989E-02
 7.61956E-02
-1.02514E-02
-4.54750E-04
 2.52576E-02
 4.45664E-02
 5.81339E-02
 7.96170E-02
-1.16852E-02
 9.11175E-03
 2.10222E-02
 3.88480E-02
 6.36057E-02
 7.18126E-02
 0.00000E+00
 8.32946E-03
 2.84872E-02
 3.91976E-02
 4.70867E-02
 6.59442E-02
-7.65866E-02
-4.96993E-02
 6.92095E-03
 6.54855E-02
 1.10160E-01
 1.52763E-01
-9.22370E-02
-4.80383E-02
 2.25580E-04
 6.38737E-02
 1.23441E-01
 1.51612E-01
-8.70286E-02
-5.79283E-02
 2.46455E-03
 6.72453E-02
 1.16569E-01
 1.60830E-01
-9.48859E-02
-5.06252E-02
-1.30107E-03
 6.34796E-02
 1.23873E-01
 1.52973E-01
-8.56681E-02
-5.74972E-02
 2.07052E-03
 6.57186E-02
 1.13982E-01
 1.58181E-01
-8.68187E-02
-4.42158E-02
 4.58720E-04
 5.90232E-02
 1.15644E-01
 1.42531E-01
-1.32818E-01
-6.81052E-02
-2.35130E-03
 6.96548E-02
 1.39864E-01
 1.93982E-01
-1.29796E-01
-7.48630E-02
-3.05126E-03
 7.12605E-02
 1.38701E-01
 2.05142E-01
-1.38977E-01
-7.26383E-02
-4.60214E-03
 7.02983E-02
 1.42663E-01
 1.98030E-01
-1.32086E-01
-7.67187E-02
-4.35412E-03
 7.05463E-02
 1.38583E-01
 2.04921E-01
-1.39198E-01
-7.27570E-02
-5.31630E-03
 6.89955E-02
 1.40807E-01
 1.95740E-01
-1.28038E-01
-7.39199E-02
-3.71059E-03
 6.82955E-02
 1.34049E-01
 1.98762E-01
-1.44421E-01
-7.68776E-02
-3.76337E-03
 7.23790E-02
 1.45178E-01
 2.14943E-01
-1.48060E-01
-7.77091E-02
-4.33913E-03
 7.18365E-02
 1.44766E-01
 2.13293E-01
-1.46907E-01
-7.82342E-02
-4.98487E-03
 7.13088E-02
 1.44902E-01
 2.15523E-01
-1.49578E-01
-7.89574E-02
-5.36463E-03
 7.09291E-02
 1.44178E-01
 2.12851E-01
-1.47349E-01
-7.88221E-02
-5.89234E-03
 7.02833E-02
 1.43653E-01
 2.14004E-01
-1.48999E-01
-7.92336E-02
-6.43479E-03
 6.97076E-02
 1.42822E-01
 2.10366E-01
-1.46683E-01
-8.44966E-02
-7.34701E-03
 7.60346E-02
 1.51115E-01
 2.16185E-01
-1.47676E-01
-8.20329E-02
-7.48549E-03
 7.44725E-02
 1.50995E-01
 2.13551E-01
-1.47185E-01
-8.40599E-02
-7.51127E-03
 7.42998E-02
 1.49030E-01
 2.14996E-01
-1.49052E-01
-8.30858E-02
-8.35562E-03
 7.34555E-02
 1.50004E-01
 2.13129E-01
-1.47607E-01
-8.50511E-02
-8.52835E-03
 7.34297E-02
 1.47977E-01
 2.13620E-01
-1.50241E-01
-8.51707E-02
-1.00904E-02
 7.32912E-02
 1.50441E-01
 2.12627E-01
-1.61820E-01
-1.02326E-01
-1.70038E-02
 8.58119E-02
 1.70975E-01
 2.27440E-01
-1.58375E-01
-1.01676E-01
-1.68440E-02
 8.41689E-02
 1.68247E-01
 2.28279E-01
-1.61699E-01
-1.01225E-01
-1.69651E-02
 8.36554E-02
 1.68325E-01
 2.26120E-01
-1.60176E-01
-1.02381E-01
-1.77113E-02
 8.29093E-02
 1.67169E-01
 2.27643E-01
-1.62335E-01
-1.02303E-01
-1.82247E-02
 8.27882E-02
 1.67620E-01
 2.24319E-01
-1.61496E-01
-1.05031E-01
-1.98677E-02
 8.29480E-02
 1.68270E-01
 2.27764E-01
 SCALARS measuredDisp12 float  1                   
LOOKUP_TABLE default
 0.00000E+00
 1.57795E-02
 2.57284E-02
 3.08952E-02
 1.45344E-02
-3.21168E-03
 7.88266E-02
 8.58607E-02
 9.05147E-02
 9.18705E-02
 8.69217E-02
 8.09655E-02
 1.56643E-01
 1.58780E-01
 1.60522E-01
 1.61146E-01
 1.60348E-01
 1.58868E-01
 2.33730E-01
 2.32250E-01
 2.31453E-01
 2.32077E-01
 2.33818E-01
 2.35955E-01
 3.11633E-01
 3.05677E-01
 3.00728E-01
 3.02084E-01
 3.06738E-01
 3.13772E-01
 3.95810E-01
 3.78064E-01
 3.61704E-01
 3.66870E-01
 3.76819E-01
 3.92599E-01
-4.84469E-03
 1.15863E-02
 1.95156E-02
 2.27185E-02
 1.34534E-02
 3.87909E-03
 7.92625E-02
 8.52199E-02
 8.93877E-02
 9.01864E-02
 8.71547E-02
 8.19735E-02
 1.56824E-01
 1.58869E-01
 1.60271E-01
 1.60941E-01
 1.60370E-01
 1.59354E-01
 2.33244E-01
 2.32229E-01
 2.31658E-01
 2.32328E-01
 2.33730E-01
 2.35775E-01
 3.10625E-01
 3.05444E-01
 3.02412E-01
 3.03211E-01
 3.07379E-01
 3.13336E-01
 3.88720E-01
 3.79145E-01
 3.69880E-01
 3.73083E-01
 3.81012E-01
 3.97443E-01
 4.24553E-03
 1.15046E-02
 1.51541E-02
 1.56750E-02
 1.18630E-02
 8.04730E-04
 8.11633E-02
 8.58281E-02
 8.77979E-02
 8.85395E-02
 8.68413E-02
 8.34334E-02
 1.57411E-01
 1.58974E-01
 1.60038E-01
 1.60540E-01
 1.60526E-01
 1.59797E-01
 2.32802E-01
 2.32073E-01
 2.32058E-01
 2.32561E-01
 2.33625E-01
 2.35188E-01
 3.09165E-01
 3.05757E-01
 3.04059E-01
 3.04801E-01
 3.06771E-01
 3.11435E-01
 3.91794E-01
 3.80736E-01
 3.76924E-01
 3.77445E-01
 3.81094E-01
 3.88353E-01
 7.91618E-03
 1.42982E-02
 1.56960E-02
 1.64631E-02
 1.62374E-02
 1.25229E-02
 8.41415E-02
 8.69188E-02
 8.80172E-02
 8.85964E-02
 8.87277E-02
 8.64140E-02
 1.58100E-01
 1.59418E-01
 1.60050E-01
 1.60611E-01
 1.60889E-01
 1.60641E-01
 2.31957E-01
 2.31710E-01
 2.31988E-01
 2.32549E-01
 2.33181E-01
 2.34499E-01
 3.06185E-01
 3.03871E-01
 3.04002E-01
 3.04581E-01
 3.05680E-01
 3.08457E-01
 3.80076E-01
 3.76361E-01
 3.76136E-01
 3.76903E-01
 3.78301E-01
 3.84683E-01
 1.74186E-02
 1.85609E-02
 1.61349E-02
 1.68875E-02
 2.01921E-02
 2.05263E-02
 8.72031E-02
 8.89187E-02
 8.84810E-02
 8.91343E-02
 9.02320E-02
 8.98992E-02
 1.58976E-01
 1.59858E-01
 1.60232E-01
 1.60796E-01
 1.61398E-01
 1.61392E-01
 2.31207E-01
 2.31201E-01
 2.31803E-01
 2.32367E-01
 2.32741E-01
 2.33623E-01
 3.02699E-01
 3.02367E-01
 3.03464E-01
 3.04118E-01
 3.03680E-01
 3.05396E-01
 3.72072E-01
 3.72407E-01
 3.75711E-01
 3.76464E-01
 3.74038E-01
 3.75180E-01
 2.35169E-02
 2.08541E-02
 1.28685E-02
 1.66734E-02
 2.15671E-02
 2.33095E-02
 8.96626E-02
 8.99189E-02
 8.86230E-02
 8.94450E-02
 9.13547E-02
 9.14339E-02
 1.59369E-01
 1.60180E-01
 1.60444E-01
 1.61012E-01
 1.61718E-01
 1.61936E-01
 2.30663E-01
 2.30880E-01
 2.31587E-01
 2.32155E-01
 2.32418E-01
 2.33230E-01
 3.01165E-01
 3.01244E-01
 3.03154E-01
 3.03976E-01
 3.02680E-01
 3.02936E-01
 3.69289E-01
 3.71032E-01
 3.75925E-01
 3.79730E-01
 3.71745E-01
 3.69082E-01
 SCALARS measuredDisp13 float  1                   
LOOKUP_TABLE default
 0.00000E+00
 0.00000E+00
 0.00000E+00
 0.00000E+00
 0.00000E+00
 0.00000E+00
 0.00000E+00
 0.00000E+00
 0.00000E+00
 0.00000E+00
 0.00000E+00
 0.00000E+00
 0.00000E+00
 0.00000E+00
 0.00000E+00
 0.00000E+00
 0.00000E+00
 0.00000E+00
 0.00000E+00
 0.00000E+00
 0.00000E+00
 0.00000E+00
 0.00000E+00
 0.00000E+00
 0.00000E+00
 0.00000E+00
 0.00000E+00
 0.00000E+00
 0.00000E+00
 0.00000E+00
 0.00000E+00
 0.00000E+00
 0.00000E+00
 0.00000E+00
 0.00000E+00
 0.00000E+00
 1.09702E-01
 1.38181E-01
 1.63945E-01
 1.61424E-01
 1.43986E-01
 1.01972E-01
 1.02074E-01
 1.43796E-01
 1.59665E-01
 1.62348E-01
 1.37997E-01
 1.09734E-01
 1.09499E-01
 1.38148E-01
 1.62270E-01
 1.59837E-01
 1.43872E-01
 1.01688E-01
 1.01688E-01
 1.43872E-01
 1.59837E-01
 1.62270E-01
 1.38148E-01
 1.09499E-01
 1.09734E-01
 1.37997E-01
 1.62348E-01
 1.59665E-01
 1.43796E-01
 1.02074E-01
 1.01972E-01
 1.43986E-01
 1.61424E-01
 1.63945E-01
 1.38181E-01
 1.09702E-01
 2.07589E-01
 2.77828E-01
 3.09106E-01
 3.10531E-01
 2.74595E-01
 2.13613E-01
 2.14471E-01
 2.75513E-01
 3.09688E-01
 3.08864E-01
 2.78809E-01
 2.08749E-01
 2.08598E-01
 2.79115E-01
 3.09142E-01
 3.09923E-01
 2.75881E-01
 2.14451E-01
 2.14451E-01
 2.75881E-01
 3.09923E-01
 3.09142E-01
 2.79115E-01
 2.08598E-01
 2.08749E-01
 2.78809E-01
 3.08864E-01
 3.09688E-01
 2.75513E-01
 2.14471E-01
 2.13613E-01
 2.74595E-01
 3.10531E-01
 3.09106E-01
 2.77828E-01
 2.07589E-01
 3.28017E-01
 4.12664E-01
 4.50012E-01
 4.49442E-01
 4.13763E-01
 3.24351E-01
 3.27189E-01
 4.15857E-01
 4.50448E-01
 4.50674E-01
 4.14844E-01
 3.30084E-01
 3.30518E-01
 4.15339E-01
 4.51143E-01
 4.50878E-01
 4.16410E-01
 3.27363E-01
 3.27363E-01
 4.16410E-01
 4.50878E-01
 4.51143E-01
 4.15339E-01
 3.30518E-01
 3.30084E-01
 4.14844E-01
 4.50674E-01
 4.50448E-01
 4.15857E-01
 3.27189E-01
 3.24351E-01
 4.13763E-01
 4.49442E-01
 4.50012E-01
 4.12664E-01
 3.28017E-01
 4.61918E-01
 5.54386E-01
 5.84650E-01
 5.84588E-01
 5.55906E-01
 4.62412E-01
 4.64978E-01
 5.57746E-01
 5.85226E-01
 5.85426E-01
 5.56412E-01
 4.64805E-01
 4.65324E-01
 5.57020E-01
 5.85974E-01
 5.85831E-01
 5.58265E-01
 4.65536E-01
 4.65536E-01
 5.58265E-01
 5.85831E-01
 5.85974E-01
 5.57020E-01
 4.65324E-01
 4.64805E-01
 5.56412E-01
 5.85426E-01
 5.85226E-01
 5.57746E-01
 4.64978E-01
 4.62412E-01
 5.55906E-01
 5.84588E-01
 5.84650E-01
 5.54386E-01
 4.61918E-01
 6.16177E-01
 7.00773E-01
 7.10151E-01
 7.08593E-01
 6.98759E-01
 6.20367E-01
 6.22288E-01
 7.00143E-01
 7.08889E-01
 7.10702E-01
 7.02111E-01
 6.18551E-01
 6.18923E-01
 7.02657E-01
 7.11310E-01
 7.09891E-01
 7.00495E-01
 6.22500E-01
 6.22500E-01
 7.00495E-01
 7.09891E-01
 7.11310E-01
 7.02657E-01
 6.18923E-01
 6.18551E-01
 7.02111E-01
 7.10702E-01
 7.08889E-01
 7.00143E-01
 6.22288E-01
 6.20367E-01
 6.98759E-01
 7.08593E-01
 7.10151E-01
 7.00773E-01
 6.16177E-01
 SCALARS measuredDisp14 float  1                   
LOOKUP_TABLE default
 1.84532E-01
 2.08040E-01
 2.50851E-01
 2.44935E-01
 2.09963E-01
 1.83586E-01
 1.84629E-01
 2.09698E-01
 2.42896E-01
 2.49359E-01
 2.07805E-01
 1.84846E-01
 1.85304E-01
 2.07646E-01
 2.47131E-01
 2.41603E-01
 2.09418E-01
 1.84883E-01
 1.84883E-01
 2.09418E-01
 2.41603E-01
 2.47131E-01
 2.07646E-01
 1.85304E-01
 1.84846E-01
 2.07805E-01
 2.49359E-01
 2.42896E-01
 2.09698E-01
 1.84629E-01
 1.83586E-01
 2.09963E-01
 2.44935E-01
 2.50851E-01
 2.08040E-01
 1.84532E-01
 1.93748E-01
 2.14237E-01
 2.36402E-01
 2.42011E-01
 2.12900E-01
 1.94055E-01
 1.94428E-01
 2.12802E-01
 2.40531E-01
 2.35744E-01
 2.14241E-01
 1.94332E-01
 1.94581E-01
 2.14007E-01
 2.34640E-01
 2.39328E-01
 2.12750E-01
 1.94805E-01
 1.94805E-01
 2.12750E-01
 2.39328E-01
 2.34640E-01
 2.14007E-01
 1.94581E-01
 1.94332E-01
 2.14241E-01
 2.35744E-01
 2.40531E-01
 2.12802E-01
 1.94428E-01
 1.94055E-01
 2.12900E-01
 2.42011E-01
 2.36402E-01
 2.14237E-01
 1.93748E-01
 2.01871E-01
 2.11407E-01
 2.22477E-01
 2.20299E-01
 2.12927E-01
 2.00142E-01
 2.00972E-01
 2.13306E-01
 2.20153E-01
 2.22497E-01
 2.11619E-01
 2.02187E-01
 2.02793E-01
 2.11817E-01
 2.22200E-01
 2.20032E-01
 2.13474E-01
 2.01286E-01
 2.01286E-01
 2.13474E-01
 2.20032E-01
 2.22200E-01
 2.11817E-01
 2.02793E-01
 2.02187E-01
 2.11619E-01
 2.22497E-01
 2.20153E-01
 2.13306E-01
 2.00972E-01
 2.00142E-01
 2.12927E-01
 2.20299E-01
 2.22477E-01
 2.11407E-01
 2.01871E-01
 2.05807E-01
 2.10086E-01
 2.04578E-01
 2.05910E-01
 2.08468E-01
 2.08085E-01
 2.08497E-01
 2.08601E-01
 2.05984E-01
 2.04916E-01
 2.10392E-01
 2.06234E-01
 2.06547E-01
 2.10474E-01
 2.04995E-01
 2.06214E-01
 2.08743E-01
 2.08788E-01
 2.08788E-01
 2.08743E-01
 2.06214E-01
 2.04995E-01
 2.10474E-01
 2.06547E-01
 2.06234E-01
 2.10392E-01
 2.04916E-01
 2.05984E-01
 2.08601E-01
 2.08497E-01
 2.08085E-01
 2.08468E-01
 2.05910E-01
 2.04578E-01
 2.10086E-01
 2.05807E-01
 2.11378E-01
 2.03459E-01
 1.88680E-01
 1.89786E-01
 2.05020E-01
 2.09082E-01
 2.09053E-01
 2.04824E-01
 1.89942E-01
 1.89244E-01
 2.03619E-01
 2.11385E-01
 2.11201E-01
 2.03513E-01
 1.89493E-01
 1.90333E-01
 2.04720E-01
 2.09014E-01
 2.09014E-01
 2.04720E-01
 1.90333E-01
 1.89493E-01
 2.03513E-01
 2.11201E-01
 2.11385E-01
 2.03619E-01
 1.89244E-01
 1.89942E-01
 2.04824E-01
 2.09053E-01
 2.09082E-01
 2.05020E-01
 1.89786E-01
 1.88680E-01
 2.03459E-01
 2.11378E-01
 2.07653E-01
 1.98369E-01
 1.78844E-01
 1.77477E-01
 1.96863E-01
 2.09825E-01
 2.09562E-01
 1.96767E-01
 1.77730E-01
 1.79826E-01
 1.98469E-01
 2.07538E-01
 2.07314E-01
 1.98297E-01
 1.80185E-01
 1.78463E-01
 1.96777E-01
 2.09104E-01
 2.09104E-01
 1.96777E-01
 1.78463E-01
 1.80185E-01
 1.98297E-01
 2.07314E-01
 2.07538E-01
 1.98469E-01
 1.79826E-01
 1.77730E-01
 1.96767E-01
 2.09562E-01
 2.09825E-01
 1.96863E-01
 1.77477E-01
 1.78844E-01
 1.98369E-01
 2.07653E-01
 SCALARS predictedDisp11 float  1                  
LOOKUP_TABLE default
 0.00000E+00
 1.88574E-02
 2.67466E-02
 3.74570E-02
 5.76147E-02
 6.59442E-02
-5.86844E-03
 2.33853E-03
 2.70962E-02
 4.49220E-02
 5.68325E-02
 7.76294E-02
-1.36728E-02
 7.81024E-03
 2.13778E-02
 4.06866E-02
 6.63990E-02
 7.61956E-02
-1.02514E-02
-4.54759E-04
 2.52576E-02
 4.45664E-02
 5.81340E-02
 7.96170E-02
-1.16852E-02
 9.11175E-03
 2.10222E-02
 3.88480E-02
 6.36057E-02
 7.18126E-02
 0.00000E+00
 8.32945E-03
 2.84872E-02
 3.91976E-02
 4.70867E-02
 6.59442E-02
-7.65866E-02
-4.96993E-02
 6.92095E-03
 6.54855E-02
 1.10160E-01
 1.52763E-01
-9.22369E-02
-4.80383E-02
 2.25581E-04
 6.38737E-02
 1.23441E-01
 1.51612E-01
-8.70286E-02
-5.79283E-02
 2.46454E-03
 6.72453E-02
 1.16569E-01
 1.60830E-01
-9.48859E-02
-5.06252E-02
-1.30107E-03
 6.34796E-02
 1.23873E-01
 1.52973E-01
-8.56680E-02
-5.74972E-02
 2.07052E-03
 6.57186E-02
 1.13982E-01
 1.58181E-01
-8.68187E-02
-4.42158E-02
 4.58711E-04
 5.90232E-02
 1.15644E-01
 1.42531E-01
-1.32818E-01
-6.81052E-02
-2.35130E-03
 6.96548E-02
 1.39864E-01
 1.93982E-01
-1.29796E-01
-7.48630E-02
-3.05127E-03
 7.12605E-02
 1.38701E-01
 2.05142E-01
-1.38977E-01
-7.26383E-02
-4.60215E-03
 7.02983E-02
 1.42663E-01
 1.98030E-01
-1.32086E-01
-7.67187E-02
-4.35413E-03
 7.05463E-02
 1.38583E-01
 2.04921E-01
-1.39198E-01
-7.27570E-02
-5.31630E-03
 6.89954E-02
 1.40807E-01
 1.95740E-01
-1.28038E-01
-7.39199E-02
-3.71060E-03
 6.82955E-02
 1.34049E-01
 1.98762E-01
-1.44421E-01
-7.68775E-02
-3.76339E-03
 7.23789E-02
 1.45178E-01
 2.14943E-01
-1.48060E-01
-7.77090E-02
-4.33915E-03
 7.18365E-02
 1.44766E-01
 2.13293E-01
-1.46907E-01
-7.82342E-02
-4.98489E-03
 7.13088E-02
 1.44902E-01
 2.15523E-01
-1.49578E-01
-7.89574E-02
-5.36465E-03
 7.09290E-02
 1.44178E-01
 2.12851E-01
-1.47349E-01
-7.88221E-02
-5.89236E-03
 7.02833E-02
 1.43653E-01
 2.14004E-01
-1.48999E-01
-7.92336E-02
-6.43480E-03
 6.97075E-02
 1.42822E-01
 2.10366E-01
-1.46683E-01
-8.44966E-02
-7.34703E-03
 7.60345E-02
 1.51115E-01
 2.16185E-01
-1.47676E-01
-8.20329E-02
-7.48550E-03
 7.44725E-02
 1.50995E-01
 2.13551E-01
-1.47185E-01
-8.40599E-02
-7.51129E-03
 7.42998E-02
 1.49030E-01
 2.14996E-01
-1.49052E-01
-8.30858E-02
-8.35566E-03
 7.34554E-02
 1.50004E-01
 2.13129E-01
-1.47607E-01
-8.50511E-02
-8.52836E-03
 7.34296E-02
 1.47977E-01
 2.13620E-01
-1.50241E-01
-8.51708E-02
-1.00904E-02
 7.32911E-02
 1.50441E-01
 2.12627E-01
-1.61820E-01
-1.02326E-01
-1.70038E-02
 8.58120E-02
 1.70975E-01
 2.27440E-01
-1.58375E-01
-1.01676E-01
-1.68440E-02
 8.41690E-02
 1.68247E-01
 2.28279E-01
-1.61699E-01
-1.01225E-01
-1.69652E-02
 8.36555E-02
 1.68325E-01
 2.26120E-01
-1.60176E-01
-1.02381E-01
-1.77113E-02
 8.29093E-02
 1.67169E-01
 2.27643E-01
-1.62335E-01
-1.02303E-01
-1.82249E-02
 8.27881E-02
 1.67620E-01
 2.24319E-01
-1.61496E-01
-1.05031E-01
-1.98679E-02
 8.29479E-02
 1.68270E-01
 2.27764E-01
 SCALARS predictedDisp12 float  1                  
LOOKUP_TABLE default
 0.00000E+00
 1.57795E-02
 2.57284E-02
 3.08952E-02
 1.45345E-02
-3.21164E-03
 7.88266E-02
 8.58607E-02
 9.05147E-02
 9.18705E-02
 8.69218E-02
 8.09655E-02
 1.56643E-01
 1.58780E-01
 1.60522E-01
 1.61146E-01
 1.60348E-01
 1.58868E-01
 2.33730E-01
 2.32250E-01
 2.31453E-01
 2.32077E-01
 2.33818E-01
 2.35955E-01
 3.11633E-01
 3.05677E-01
 3.00728E-01
 3.02084E-01
 3.06738E-01
 3.13772E-01
 3.95810E-01
 3.78064E-01
 3.61703E-01
 3.66870E-01
 3.76819E-01
 3.92599E-01
-4.84469E-03
 1.15863E-02
 1.95156E-02
 2.27185E-02
 1.34534E-02
 3.87914E-03
 7.92625E-02
 8.52199E-02
 8.93877E-02
 9.01864E-02
 8.71547E-02
 8.19736E-02
 1.56824E-01
 1.58869E-01
 1.60271E-01
 1.60941E-01
 1.60370E-01
 1.59354E-01
 2.33244E-01
 2.32229E-01
 2.31657E-01
 2.32328E-01
 2.33730E-01
 2.35775E-01
 3.10625E-01
 3.05444E-01
 3.02412E-01
 3.03211E-01
 3.07379E-01
 3.13336E-01
 3.88720E-01
 3.79145E-01
 3.69880E-01
 3.73083E-01
 3.81012E-01
 3.97443E-01
 4.24553E-03
 1.15046E-02
 1.51541E-02
 1.56750E-02
 1.18630E-02
 8.04772E-04
 8.11632E-02
 8.58281E-02
 8.77979E-02
 8.85395E-02
 8.68414E-02
 8.34335E-02
 1.57411E-01
 1.58974E-01
 1.60038E-01
 1.60540E-01
 1.60526E-01
 1.59797E-01
 2.32802E-01
 2.32073E-01
 2.32058E-01
 2.32561E-01
 2.33625E-01
 2.35187E-01
 3.09165E-01
 3.05757E-01
 3.04059E-01
 3.04801E-01
 3.06771E-01
 3.11435E-01
 3.91794E-01
 3.80736E-01
 3.76924E-01
 3.77445E-01
 3.81094E-01
 3.88353E-01
 7.91619E-03
 1.42982E-02
 1.56960E-02
 1.64632E-02
 1.62374E-02
 1.25229E-02
 8.41415E-02
 8.69188E-02
 8.80173E-02
 8.85964E-02
 8.87277E-02
 8.64140E-02
 1.58100E-01
 1.59418E-01
 1.60050E-01
 1.60611E-01
 1.60889E-01
 1.60641E-01
 2.31957E-01
 2.31710E-01
 2.31988E-01
 2.32549E-01
 2.33181E-01
 2.34499E-01
 3.06185E-01
 3.03871E-01
 3.04002E-01
 3.04581E-01
 3.05680E-01
 3.08457E-01
 3.80076E-01
 3.76361E-01
 3.76136E-01
 3.76903E-01
 3.78300E-01
 3.84683E-01
 1.74186E-02
 1.85610E-02
 1.61349E-02
 1.68875E-02
 2.01921E-02
 2.05263E-02
 8.72031E-02
 8.89188E-02
 8.84810E-02
 8.91343E-02
 9.02320E-02
 8.98993E-02
 1.58976E-01
 1.59858E-01
 1.60232E-01
 1.60796E-01
 1.61398E-01
 1.61392E-01
 2.31207E-01
 2.31201E-01
 2.31803E-01
 2.32367E-01
 2.32741E-01
 2.33623E-01
 3.02699E-01
 3.02367E-01
 3.03464E-01
 3.04118E-01
 3.03680E-01
 3.05396E-01
 3.72072E-01
 3.72407E-01
 3.75711E-01
 3.76464E-01
 3.74038E-01
 3.75180E-01
 2.35171E-02
 2.08542E-02
 1.28684E-02
 1.66735E-02
 2.15672E-02
 2.33095E-02
 8.96626E-02
 8.99189E-02
 8.86230E-02
 8.94449E-02
 9.13547E-02
 9.14338E-02
 1.59369E-01
 1.60180E-01
 1.60444E-01
 1.61012E-01
 1.61718E-01
 1.61936E-01
 2.30663E-01
 2.30881E-01
 2.31587E-01
 2.32155E-01
 2.32418E-01
 2.33230E-01
 3.01165E-01
 3.01244E-01
 3.03154E-01
 3.03976E-01
 3.02680E-01
 3.02936E-01
 3.69289E-01
 3.71032E-01
 3.75925E-01
 3.79730E-01
 3.71745E-01
 3.69082E-01
 SCALARS predictedDisp13 float  1                  
LOOKUP_TABLE default
 0.00000E+00
 0.00000E+00
 0.00000E+00
 0.00000E+00
 0.00000E+00
 0.00000E+00
 0.00000E+00
 0.00000E+00
 0.00000E+00
 0.00000E+00
 0.00000E+00
 0.00000E+00
 0.00000E+00
 0.00000E+00
 0.00000E+00
 0.00000E+00
 0.00000E+00
 0.00000E+00
 0.00000E+00
 0.00000E+00
 0.00000E+00
 0.00000E+00
 0.00000E+00
 0.00000E+00
 0.00000E+00
 0.00000E+00
 0.00000E+00
 0.00000E+00
 0.00000E+00
 0.00000E+00
 0.00000E+00
 0.00000E+00
 0.00000E+00
 0.00000E+00
 0.00000E+00
 0.00000E+00
 1.09702E-01
 1.38181E-01
 1.63945E-01
 1.61424E-01
 1.43986E-01
 1.01972E-01
 1.02074E-01
 1.43796E-01
 1.59665E-01
 1.62348E-01
 1.37997E-01
 1.09734E-01
 1.09499E-01
 1.38148E-01
 1.62270E-01
 1.59837E-01
 1.43872E-01
 1.01688E-01
 1.01688E-01
 1.43872E-01
 1.59837E-01
 1.62270E-01
 1.38148E-01
 1.09499E-01
 1.09734E-01
 1.37997E-01
 1.62348E-01
 1.59665E-01
 1.43796E-01
 1.02074E-01
 1.01972E-01
 1.43986E-01
 1.61424E-01
 1.63945E-01
 1.38181E-01
 1.09702E-01
 2.07589E-01
 2.77828E-01
 3.09106E-01
 3.10531E-01
 2.74595E-01
 2.13613E-01
 2.14471E-01
 2.75513E-01
 3.09688E-01
 3.08864E-01
 2.78809E-01
 2.08749E-01
 2.08598E-01
 2.79115E-01
 3.09142E-01
 3.09923E-01
 2.75881E-01
 2.14451E-01
 2.14451E-01
 2.75881E-01
 3.09923E-01
 3.09142E-01
 2.79115E-01
 2.08598E-01
 2.08749E-01
 2.78809E-01
 3.08864E-01
 3.09688E-01
 2.75513E-01
 2.14471E-01
 2.13613E-01
 2.74595E-01
 3.10531E-01
 3.09106E-01
 2.77828E-01
 2.07589E-01
 3.28017E-01
 4.12664E-01
 4.50012E-01
 4.49442E-01
 4.13763E-01
 3.24351E-01
 3.27189E-01
 4.15857E-01
 4.50448E-01
 4.50674E-01
 4.14844E-01
 3.30084E-01
 3.30518E-01
 4.15339E-01
 4.51143E-01
 4.50878E-01
 4.16410E-01
 3.27363E-01
 3.27363E-01
 4.16410E-01
 4.50878E-01
 4.51143E-01
 4.15339E-01
 3.30518E-01
 3.30084E-01
 4.14844E-01
 4.50674E-01
 4.50448E-01
 4.15857E-01
 3.27189E-01
 3.24351E-01
 4.13763E-01
 4.49442E-01
 4.50012E-01
 4.12664E-01
 3.28017E-01
 4.61918E-01
 5.54386E-01
 5.84650E-01
 5.84588E-01
 5.55906E-01
 4.62412E-01
 4.64978E-01
 5.57746E-01
 5.85226E-01
 5.85426E-01
 5.56412E-01
 4.64805E-01
 4.65324E-01
 5.57020E-01
 5.85974E-01
 5.85831E-01
 5.58265E-01
 4.65536E-01
 4.65536E-01
 5.58265E-01
 5.85831E-01
 5.85974E-01
 5.57020E-01
 4.65324E-01
 4.64805E-01
 5.56412E-01
 5.85426E-01
 5.85226E-01
 5.57746E-01
 4.64978E-01
 4.62412E-01
 5.55906E-01
 5.84588E-01
 5.84650E-01
 5.54386E-01
 4.61918E-01
 6.16176E-01
 7.00773E-01
 7.10151E-01
 7.08593E-01
 6.98758E-01
 6.20367E-01
 6.22288E-01
 7.00143E-01
 7.08889E-01
 7.10702E-01
 7.02111E-01
 6.18550E-01
 6.18922E-01
 7.02657E-01
 7.11310E-01
 7.09891E-01
 7.00495E-01
 6.22500E-01
 6.22500E-01
 7.00495E-01
 7.09891E-01