# vtk DataFile Version 2.0
Output of NLACE
ASCII
DATASET UNSTRUCTURED_GRID
POINTS         3721 FLOAT
 0.000000E+00  0.000000E+00  0.000000E+00
 1.666667E-02  0.000000E+00  0.000000E+00
 3.333333E-02  0.000000E+00  0.000000E+00
 5.000000E-02  0.000000E+00  0.000000E+00
 6.666667E-02  0.000000E+00  0.000000E+00
 8.333333E-02  0.000000E+00  0.000000E+00
 1.000000E-01  0.000000E+00  0.000000E+00
 1.166667E-01  0.000000E+00  0.000000E+00
 1.333333E-01  0.000000E+00  0.000000E+00
 1.500000E-01  0.000000E+00  0.000000E+00
 1.666667E-01  0.000000E+00  0.000000E+00
 1.833333E-01  0.000000E+00  0.000000E+00
 2.000000E-01  0.000000E+00  0.000000E+00
 2.166667E-01  0.000000E+00  0.000000E+00
 2.333333E-01  0.000000E+00  0.000000E+00
 2.500000E-01  0.000000E+00  0.000000E+00
 2.666667E-01  0.000000E+00  0.000000E+00
 2.833333E-01  0.000000E+00  0.000000E+00
 3.000000E-01  0.000000E+00  0.000000E+00
 3.166667E-01  0.000000E+00  0.000000E+00
 3.333333E-01  0.000000E+00  0.000000E+00
 3.500000E-01  0.000000E+00  0.000000E+00
 3.666667E-01  0.000000E+00  0.000000E+00
 3.833333E-01  0.000000E+00  0.000000E+00
 4.000000E-01  0.000000E+00  0.000000E+00
 4.166667E-01  0.000000E+00  0.000000E+00
 4.333333E-01  0.000000E+00  0.000000E+00
 4.500000E-01  0.000000E+00  0.000000E+00
 4.666667E-01  0.000000E+00  0.000000E+00
 4.833333E-01  0.000000E+00  0.000000E+00
 5.000000E-01  0.000000E+00  0.000000E+00
 5.166667E-01  0.000000E+00  0.000000E+00
 5.333333E-01  0.000000E+00  0.000000E+00
 5.500000E-01  0.000000E+00  0.000000E+00
 5.666667E-01  0.000000E+00  0.000000E+00
 5.833333E-01  0.000000E+00  0.000000E+00
 6.000000E-01  0.000000E+00  0.000000E+00
 6.166667E-01  0.000000E+00  0.000000E+00
 6.333333E-01  0.000000E+00  0.000000E+00
 6.500000E-01  0.000000E+00  0.000000E+00
 6.666667E-01  0.000000E+00  0.000000E+00
 6.833333E-01  0.000000E+00  0.000000E+00
 7.000000E-01  0.000000E+00  0.000000E+00
 7.166667E-01  0.000000E+00  0.000000E+00
 7.333333E-01  0.000000E+00  0.000000E+00
 7.500000E-01  0.000000E+00  0.000000E+00
 7.666667E-01  0.000000E+00  0.000000E+00
 7.833333E-01  0.000000E+00  0.000000E+00
 8.000000E-01  0.000000E+00  0.000000E+00
 8.166667E-01  0.000000E+00  0.000000E+00
 8.333333E-01  0.000000E+00  0.000000E+00
 8.500000E-01  0.000000E+00  0.000000E+00
 8.666667E-01  0.000000E+00  0.000000E+00
 8.833333E-01  0.000000E+00  0.000000E+00
 9.000000E-01  0.000000E+00  0.000000E+00
 9.166667E-01  0.000000E+00  0.000000E+00
 9.333333E-01  0.000000E+00  0.000000E+00
 9.500000E-01  0.000000E+00  0.000000E+00
 9.666667E-01  0.000000E+00  0.000000E+00
 9.833333E-01  0.000000E+00  0.000000E+00
 1.000000E+00  0.000000E+00  0.000000E+00
 0.000000E+00  1.666667E-02  0.000000E+00
 1.666667E-02  1.666667E-02  0.000000E+00
 3.333333E-02  1.666667E-02  0.000000E+00
 5.000000E-02  1.666667E-02  0.000000E+00
 6.666667E-02  1.666667E-02  0.000000E+00
 8.333333E-02  1.666667E-02  0.000000E+00
 1.000000E-01  1.666667E-02  0.000000E+00
 1.166667E-01  1.666667E-02  0.000000E+00
 1.333333E-01  1.666667E-02  0.000000E+00
 1.500000E-01  1.666667E-02  0.000000E+00
 1.666667E-01  1.666667E-02  0.000000E+00
 1.833333E-01  1.666667E-02  0.000000E+00
 2.000000E-01  1.666667E-02  0.000000E+00
 2.166667E-01  1.666667E-02  0.000000E+00
 2.333333E-01  1.666667E-02  0.000000E+00
 2.500000E-01  1.666667E-02  0.000000E+00
 2.666667E-01  1.666667E-02  0.000000E+00
 2.833333E-01  1.666667E-02  0.000000E+00
 3.000000E-01  1.666667E-02  0.000000E+00
 3.166667E-01  1.666667E-02  0.000000E+00
 3.333333E-01  1.666667E-02  0.000000E+00
 3.500000E-01  1.666667E-02  0.000000E+00
 3.666667E-01  1.666667E-02  0.000000E+00
 3.833333E-01  1.666667E-02  0.000000E+00
 4.000000E-01  1.666667E-02  0.000000E+00
 4.166667E-01  1.666667E-02  0.000000E+00
 4.333333E-01  1.666667E-02  0.000000E+00
 4.500000E-01  1.666667E-02  0.000000E+00
 4.666667E-01  1.666667E-02  0.000000E+00
 4.833333E-01  1.666667E-02  0.000000E+00
 5.000000E-01  1.666667E-02  0.000000E+00
 5.166667E-01  1.666667E-02  0.000000E+00
 5.333333E-01  1.666667E-02  0.000000E+00
 5.500000E-01  1.666667E-02  0.000000E+00
 5.666667E-01  1.666667E-02  0.000000E+00
 5.833333E-01  1.666667E-02  0.000000E+00
 6.000000E-01  1.666667E-02  0.000000E+00
 6.166667E-01  1.666667E-02  0.000000E+00
 6.333333E-01  1.666667E-02  0.000000E+00
 6.500000E-01  1.666667E-02  0.000000E+00
 6.666667E-01  1.666667E-02  0.000000E+00
 6.833333E-01  1.666667E-02  0.000000E+00
 7.000000E-01  1.666667E-02  0.000000E+00
 7.166667E-01  1.666667E-02  0.000000E+00
 7.333333E-01  1.666667E-02  0.000000E+00
 7.500000E-01  1.666667E-02  0.000000E+00
 7.666667E-01  1.666667E-02  0.000000E+00
 7.833333E-01  1.666667E-02  0.000000E+00
 8.000000E-01  1.666667E-02  0.000000E+00
 8.166667E-01  1.666667E-02  0.000000E+00
 8.333333E-01  1.666667E-02  0.000000E+00
 8.500000E-01  1.666667E-02  0.000000E+00
 8.666667E-01  1.666667E-02  0.000000E+00
 8.833333E-01  1.666667E-02  0.000000E+00
 9.000000E-01  1.666667E-02  0.000000E+00
 9.166667E-01  1.666667E-02  0.000000E+00
 9.333333E-01  1.666667E-02  0.000000E+00
 9.500000E-01  1.666667E-02  0.000000E+00
 9.666667E-01  1.666667E-02  0.000000E+00
 9.833333E-01  1.666667E-02  0.000000E+00
 1.000000E+00  1.666667E-02  0.000000E+00
 0.000000E+00  3.333333E-02  0.000000E+00
 1.666667E-02  3.333333E-02  0.000000E+00
 3.333333E-02  3.333333E-02  0.000000E+00
 5.000000E-02  3.333333E-02  0.000000E+00
 6.666667E-02  3.333333E-02  0.000000E+00
 8.333333E-02  3.333333E-02  0.000000E+00
 1.000000E-01  3.333333E-02  0.000000E+00
 1.166667E-01  3.333333E-02  0.000000E+00
 1.333333E-01  3.333333E-02  0.000000E+00
 1.500000E-01  3.333333E-02  0.000000E+00
 1.666667E-01  3.333333E-02  0.000000E+00
 1.833333E-01  3.333333E-02  0.000000E+00
 2.000000E-01  3.333333E-02  0.000000E+00
 2.166667E-01  3.333333E-02  0.000000E+00
 2.333333E-01  3.333333E-02  0.000000E+00
 2.500000E-01  3.333333E-02  0.000000E+00
 2.666667E-01  3.333333E-02  0.000000E+00
 2.833333E-01  3.333333E-02  0.000000E+00
 3.000000E-01  3.333333E-02  0.000000E+00
 3.166667E-01  3.333333E-02  0.000000E+00
 3.333333E-01  3.333333E-02  0.000000E+00
 3.500000E-01  3.333333E-02  0.000000E+00
 3.666667E-01  3.333333E-02  0.000000E+00
 3.833333E-01  3.333333E-02  0.000000E+00
 4.000000E-01  3.333333E-02  0.000000E+00
 4.166667E-01  3.333333E-02  0.000000E+00
 4.333333E-01  3.333333E-02  0.000000E+00
 4.500000E-01  3.333333E-02  0.000000E+00
 4.666667E-01  3.333333E-02  0.000000E+00
 4.833333E-01  3.333333E-02  0.000000E+00
 5.000000E-01  3.333333E-02  0.000000E+00
 5.166667E-01  3.333333E-02  0.000000E+00
 5.333333E-01  3.333333E-02  0.000000E+00
 5.500000E-01  3.333333E-02  0.000000E+00
 5.666667E-01  3.333333E-02  0.000000E+00
 5.833333E-01  3.333333E-02  0.000000E+00
 6.000000E-01  3.333333E-02  0.000000E+00
 6.166667E-01  3.333333E-02  0.000000E+00
 6.333333E-01  3.333333E-02  0.000000E+00
 6.500000E-01  3.333333E-02  0.000000E+00
 6.666667E-01  3.333333E-02  0.000000E+00
 6.833333E-01  3.333333E-02  0.000000E+00
 7.000000E-01  3.333333E-02  0.000000E+00
 7.166667E-01  3.333333E-02  0.000000E+00
 7.333333E-01  3.333333E-02  0.000000E+00
 7.500000E-01  3.333333E-02  0.000000E+00
 7.666667E-01  3.333333E-02  0.000000E+00
 7.833333E-01  3.333333E-02  0.000000E+00
 8.000000E-01  3.333333E-02  0.000000E+00
 8.166667E-01  3.333333E-02  0.000000E+00
 8.333333E-01  3.333333E-02  0.000000E+00
 8.500000E-01  3.333333E-02  0.000000E+00
 8.666667E-01  3.333333E-02  0.000000E+00
 8.833333E-01  3.333333E-02  0.000000E+00
 9.000000E-01  3.333333E-02  0.000000E+00
 9.166667E-01  3.333333E-02  0.000000E+00
 9.333333E-01  3.333333E-02  0.000000E+00
 9.500000E-01  3.333333E-02  0.000000E+00
 9.666667E-01  3.333333E-02  0.000000E+00
 9.833333E-01  3.333333E-02  0.000000E+00
 1.000000E+00  3.333333E-02  0.000000E+00
 0.000000E+00  5.000000E-02  0.000000E+00
 1.666667E-02  5.000000E-02  0.000000E+00
 3.333333E-02  5.000000E-02  0.000000E+00
 5.000000E-02  5.000000E-02  0.000000E+00
 6.666667E-02  5.000000E-02  0.000000E+00
 8.333333E-02  5.000000E-02  0.000000E+00
 1.000000E-01  5.000000E-02  0.000000E+00
 1.166667E-01  5.000000E-02  0.000000E+00
 1.333333E-01  5.000000E-02  0.000000E+00
 1.500000E-01  5.000000E-02  0.000000E+00
 1.666667E-01  5.000000E-02  0.000000E+00
 1.833333E-01  5.000000E-02  0.000000E+00
 2.000000E-01  5.000000E-02  0.000000E+00
 2.166667E-01  5.000000E-02  0.000000E+00
 2.333333E-01  5.000000E-02  0.000000E+00
 2.500000E-01  5.000000E-02  0.000000E+00
 2.666667E-01  5.000000E-02  0.000000E+00
 2.833333E-01  5.000000E-02  0.000000E+00
 3.000000E-01  5.000000E-02  0.000000E+00
 3.166667E-01  5.000000E-02  0.000000E+00
 3.333333E-01  5.000000E-02  0.000000E+00
 3.500000E-01  5.000000E-02  0.000000E+00
 3.666667E-01  5.000000E-02  0.000000E+00
 3.833333E-01  5.000000E-02  0.000000E+00
 4.000000E-01  5.000000E-02  0.000000E+00
 4.166667E-01  5.000000E-02  0.000000E+00
 4.333333E-01  5.000000E-02  0.000000E+00
 4.500000E-01  5.000000E-02  0.000000E+00
 4.666667E-01  5.000000E-02  0.000000E+00
 4.833333E-01  5.000000E-02  0.000000E+00
 5.000000E-01  5.000000E-02  0.000000E+00
 5.166667E-01  5.000000E-02  0.000000E+00
 5.333333E-01  5.000000E-02  0.000000E+00
 5.500000E-01  5.000000E-02  0.000000E+00
 5.666667E-01  5.000000E-02  0.000000E+00
 5.833333E-01  5.000000E-02  0.000000E+00
 6.000000E-01  5.000000E-02  0.000000E+00
 6.166667E-01  5.000000E-02  0.000000E+00
 6.333333E-01  5.000000E-02  0.000000E+00
 6.500000E-01  5.000000E-02  0.000000E+00
 6.666667E-01  5.000000E-02  0.000000E+00
 6.833333E-01  5.000000E-02  0.000000E+00
 7.000000E-01  5.000000E-02  0.000000E+00
 7.166667E-01  5.000000E-02  0.000000E+00
 7.333333E-01  5.000000E-02  0.000000E+00
 7.500000E-01  5.000000E-02  0.000000E+00
 7.666667E-01  5.000000E-02  0.000000E+00
 7.833333E-01  5.000000E-02  0.000000E+00
 8.000000E-01  5.000000E-02  0.000000E+00
 8.166667E-01  5.000000E-02  0.000000E+00
 8.333333E-01  5.000000E-02  0.000000E+00
 8.500000E-01  5.000000E-02  0.000000E+00
[...]
POINT_DATA         3721
 SCALARS measuredDisp11 float  1                   
LOOKUP_TABLE default
-6.06996E-01
-5.99528E-01
-5.65917E-01
-5.60985E-01
-5.53298E-01
-5.40802E-01
-5.26281E-01
-5.10960E-01
-4.91084E-01
-4.79443E-01
-4.66784E-01
-4.55088E-01
-4.35532E-01
-4.00465E-01
-3.99132E-01
-3.63243E-01
-3.72253E-01
-3.33743E-01
-3.21336E-01
-2.83516E-01
-2.76220E-01
-2.47468E-01
-2.23736E-01
-2.00277E-01
-1.61118E-01
-1.41098E-01
-1.14361E-01
-9.14491E-02
-5.53327E-02
-2.43775E-02
-5.51315E-04
 2.80512E-02
 5.37212E-02
 9.31041E-02
 1.15859E-01
 1.44120E-01
 1.64292E-01
 1.92402E-01
 2.19140E-01
 2.42336E-01
 2.70233E-01
 2.77857E-01
 3.19351E-01
 3.32484E-01
 3.60840E-01
 3.75805E-01
 4.08011E-01
 4.12598E-01
 4.24161E-01
 4.45337E-01
 4.60299E-01
 4.79079E-01
 4.89373E-01
 5.07062E-01
 5.20454E-01
 5.37225E-01
 5.53407E-01
 5.54752E-01
 5.79625E-01
 5.82922E-01
 5.93569E-01
-6.00895E-01
-6.07744E-01
-5.81545E-01
-5.61072E-01
-5.45251E-01
-5.48411E-01
-5.25505E-01
-5.11249E-01
-4.87919E-01
-4.83116E-01
-4.66904E-01
-4.52618E-01
-4.28694E-01
-4.12598E-01
-3.86627E-01
-3.72624E-01
-3.59874E-01
-3.27463E-01
-3.04384E-01
-2.91314E-01
-2.79164E-01
-2.40072E-01
-2.23447E-01
-1.88005E-01
-1.69142E-01
-1.55419E-01
-1.12353E-01
-8.46619E-02
-5.59807E-02
-3.18059E-02
 1.31008E-03
 3.58007E-02
 5.85990E-02
 8.51624E-02
 1.17252E-01
 1.36924E-01
 1.65537E-01
 1.97907E-01
 2.14577E-01
 2.41084E-01
 2.80153E-01
 2.85761E-01
 3.12097E-01
 3.27841E-01
 3.49456E-01
 3.80766E-01
 4.03839E-01
 4.10881E-01
 4.30673E-01
 4.30822E-01
 4.72238E-01
 4.87007E-01
 5.00974E-01
 5.05701E-01
 5.21093E-01
 5.40372E-01
 5.51692E-01
 5.64314E-01
 5.72255E-01
 5.96346E-01
 5.98504E-01
-6.11423E-01
-5.76666E-01
-5.78609E-01
-5.67313E-01
-5.57556E-01
-5.39225E-01
-5.22727E-01
-5.03889E-01
-4.84797E-01
-4.85001E-01
-4.57081E-01
-4.49710E-01
-4.30218E-01
-4.09777E-01
-3.87571E-01
-3.74250E-01
-3.59698E-01
-3.36596E-01
-3.12402E-01
-2.99926E-01
-2.58680E-01
-2.44226E-01
-2.10429E-01
-1.83470E-01
-1.64253E-01
-1.50790E-01
-1.05941E-01
-8.09953E-02
-5.83210E-02
-3.44109E-02
-1.78145E-03
 2.63949E-02
 7.29289E-02
 8.68201E-02
 9.58174E-02
 1.47269E-01
 1.63010E-01
 1.94510E-01
 2.25277E-01
 2.49033E-01
 2.53351E-01
 2.94259E-01
 3.17058E-01
 3.34502E-01
 3.54592E-01
 3.76779E-01
 3.96964E-01
 3.95371E-01
 4.35428E-01
 4.45894E-01
 4.64445E-01
 4.75731E-01
 4.88598E-01
 5.07773E-01
 5.30586E-01
 5.25522E-01
 5.46012E-01
 5.75218E-01
 5.73124E-01
 5.91439E-01
 5.96059E-01
-5.92696E-01
-5.89735E-01
-5.69433E-01
-5.69558E-01
-5.46143E-01
-5.38972E-01
-5.14695E-01
-5.05183E-01
-4.92242E-01
-4.69229E-01
-4.65334E-01
-4.49635E-01
-4.23651E-01
-4.16140E-01
-3.90566E-01
-3.66925E-01
-3.47608E-01
-3.29939E-01
-3.14204E-01
-2.90027E-01
-2.61739E-01
-2.40831E-01
-2.19291E-01
-2.09030E-01
-1.74981E-01
-1.30879E-01
-1.05755E-01
-8.26183E-02
-7.23058E-02
-2.50534E-02
-2.59381E-03
 2.94757E-02
 6.26718E-02
 8.75126E-02
 1.17403E-01
 1.46866E-01
 1.63252E-01
 2.06162E-01
 2.27040E-01
 2.48429E-01
 2.63142E-01
 2.93782E-01
 3.14248E-01
 3.39373E-01
 3.44952E-01
 3.79526E-01
 3.86073E-01
 3.98915E-01
 4.19847E-01
 4.42543E-01
 4.64667E-01
 4.82362E-01
 5.00048E-01
 5.08873E-01
 5.18972E-01
 5.33449E-01
 5.63633E-01
 5.65563E-01
 5.79279E-01
 5.83405E-01
 5.92485E-01
-6.01181E-01
-5.81196E-01
-5.71808E-01
-5.60564E-01
-5.54660E-01
-5.27468E-01
-5.15870E-01
-5.09474E-01
-4.85861E-01
-4.75370E-01
-4.55512E-01
-4.40607E-01
-4.32434E-01
-4.08521E-01
-3.89132E-01
-3.68588E-01
-3.51500E-01
-3.29673E-01
-3.05003E-01
-2.81030E-01
-2.58486E-01
-2.49541E-01
-2.18256E-01
-1.96680E-01
-1.59990E-01
-1.44323E-01
-1.24202E-01
-7.83667E-02
-5.74847E-02
-2.65046E-02
-1.63925E-05
 3.06932E-02
 6.35929E-02
 9.80599E-02
 1.11772E-01
 1.29614E-01
 1.68643E-01
 1.84327E-01
 2.24693E-01
 2.42675E-01
 2.68495E-01
 3.02211E-01
 3.14488E-01
 3.34566E-01
 3.53734E-01
 3.65335E-01
 3.84610E-01
 4.10522E-01
 4.29355E-01
 4.42900E-01
 4.48602E-01
 4.74182E-01
 4.79859E-01
 4.98086E-01
 5.15655E-01
 5.29490E-01
 5.50320E-01
 5.53416E-01
 5.72448E-01
 5.85732E-01
 5.98125E-01
-5.94876E-01
-5.72455E-01
-5.64489E-01
-5.47440E-01
-5.37038E-01
-5.28346E-01
-5.10186E-01
-5.05363E-01
-4.69343E-01
-4.66320E-01
-4.51723E-01
-4.31103E-01
-4.25242E-01
-4.01612E-01
-3.80071E-01
-3.58144E-01
-3.46433E-01
-3.33945E-01
-3.09859E-01
-2.92361E-01
-2.59457E-01
-2.34554E-01
-2.18034E-01
-2.04431E-01
-1.70935E-01
-1.40850E-01
-1.12540E-01
-8.58647E-02
-6.67983E-02
-3.52709E-02
 7.54197E-04
 3.69207E-02
 6.65766E-02
 8.97052E-02
 1.23570E-01
 1.32878E-01
 1.67005E-01
 1.86971E-01
 2.26947E-01
 2.32722E-01
 2.77592E-01
 2.91093E-01
 2.98853E-01
 3.24030E-01
 3.56756E-01
 3.66789E-01
 3.88559E-01
 4.05594E-01
 4.22921E-01
 4.33948E-01
 4.49070E-01
 4.62932E-01
 4.73838E-01
 5.03374E-01
 5.07242E-01
 5.24550E-01
 5.31035E-01
 5.57770E-01
 5.74892E-01
 5.81719E-01
 5.90373E-01
-5.89626E-01
-5.73258E-01
-5.64901E-01
-5.48913E-01
-5.26562E-01
-5.18500E-01
-5.10944E-01
-5.03976E-01
-4.79954E-01
-4.61193E-01
-4.52000E-01
-4.38586E-01
-4.12672E-01
-3.85778E-01
-3.82493E-01
-3.58704E-01
-3.39548E-01
-3.14419E-01
-3.07509E-01
-2.85881E-01
-2.72253E-01
-2.43294E-01
-2.24030E-01
-1.80685E-01
-1.70721E-01
-1.32299E-01
-1.27316E-01
-6.75234E-02
-5.47001E-02
-1.15652E-02
 4.58665E-03
 2.85905E-02
 6.55501E-02
 8.61144E-02
 1.10500E-01
 1.35511E-01
 1.77303E-01
 1.86212E-01
 2.12940E-01
 2.39189E-01
 2.60366E-01
 2.87674E-01
 3.00657E-01
 3.24210E-01
 3.45226E-01
 3.53488E-01
 3.82970E-01
 3.99241E-01
 4.04596E-01
 4.36782E-01
 4.44956E-01
 4.57216E-01
 4.80427E-01
 5.03437E-01
 4.99830E-01
 5.15465E-01
 5.34301E-01
 5.39099E-01
 5.55614E-01
 5.77404E-01
 5.78413E-01
-5.90886E-01
-5.67522E-01
-5.46087E-01
-5.34981E-01
-5.28453E-01
-5.10203E-01
-4.99168E-01
-4.88413E-01
-4.78232E-01
-4.62643E-01
-4.37322E-01
-4.24610E-01
-4.02362E-01
-3.90927E-01
-3.65174E-01
-3.59660E-01
-3.42474E-01
-3.16425E-01
-3.04887E-01
-2.84809E-01
-2.61576E-01
-2.42096E-01
-2.17772E-01
-1.81858E-01
-1.70996E-01
-1.39562E-01
-1.11695E-01
-9.69209E-02
-7.01266E-02
-2.92526E-02
-1.53605E-03
 3.09770E-02
 4.88862E-02
 9.16443E-02
 1.00141E-01
 1.43539E-01
 1.63021E-01
 2.05666E-01
 2.15066E-01
 2.38502E-01
 2.61628E-01
 2.87824E-01
 3.07933E-01
 3.22831E-01
 3.37941E-01
 3.61874E-01
 3.70814E-01
 3.90395E-01
 3.96860E-01
 4.15678E-01
 4.38263E-01
 4.59164E-01
 4.65494E-01
 4.90572E-01
 4.91790E-01
 5.21397E-01
 5.31673E-01
 5.33848E-01
 5.63299E-01
 5.63615E-01
 5.76459E-01
-5.76788E-01
-5.54622E-01
-5.43777E-01
-5.24638E-01
-5.18182E-01
-5.04211E-01
-4.87552E-01
-4.78428E-01
-4.53842E-01
-4.52876E-01
-4.42836E-01
-4.21306E-01
-4.03624E-01
-3.98138E-01
-3.72764E-01
-3.51263E-01
-3.36157E-01
-3.13051E-01
-2.91532E-01
-2.78795E-01
-2.48406E-01
-2.41105E-01
-2.18049E-01
-1.86338E-01
-1.70643E-01
-1.33189E-01
-1.17408E-01
-7.69988E-02
-5.81548E-02
-2.48119E-02
-4.00419E-03
 3.09003E-02
 6.51206E-02
 8.20558E-02
 1.22691E-01
 1.42329E-01
 1.60967E-01
 1.88615E-01
 2.20652E-01
 2.31294E-01
 2.56417E-01
 2.72124E-01
 3.04156E-01
 3.14386E-01
 3.30442E-01
 3.52929E-01
 3.55729E-01
 3.82680E-01
 3.98995E-01
 4.16782E-01
 4.31160E-01
 4.39309E-01
 4.71661E-01
 4.81531E-01
 4.83866E-01
 5.14278E-01
 5.21252E-01
 5.29905E-01
 5.48078E-01
 5.54142E-01
 5.78638E-01
-5.77290E-01
-5.58034E-01
-5.30699E-01
-5.24653E-01
-5.10951E-01
-4.94480E-01
-4.87746E-01
-4.66054E-01
-4.62514E-01
-4.36190E-01
-4.26063E-01
-4.12501E-01
-3.89587E-01
-3.93401E-01
-3.51781E-01
-3.49688E-01
-3.20085E-01
-3.06593E-01
-2.91686E-01
-2.71526E-01
-2.59846E-01
-2.21610E-01
-2.16521E-01
-1.91106E-01
-1.65614E-01
-1.35410E-01
-1.09345E-01
-7.64737E-02
-7.44014E-02
-2.95734E-02
 1.81100E-03
 3.40317E-02
 5.39616E-02
 8.11644E-02
 1.18904E-01
 1.33073E-01
 1.62533E-01
 1.93383E-01
 2.12779E-01
 2.38471E-01
 2.56896E-01
 2.73850E-01
 2.98453E-01
 3.01245E-01
 3.26934E-01
 3.40972E-01
 3.66739E-01
 3.71248E-01
 3.90598E-01
 4.06815E-01
 4.22627E-01
 4.41014E-01
 4.51010E-01
 4.74744E-01
 4.82253E-01
 5.00549E-01
 5.05979E-01
 5.28845E-01
 5.32292E-01
 5.49133E-01
 5.70955E-01
-5.51899E-01
-5.48423E-01
-5.25803E-01
-5.29014E-01
-5.04025E-01
-5.03765E-01
-4.75018E-01
-4.56771E-01
-4.45097E-01
-4.36049E-01
-4.16815E-01
-4.02594E-01
-3.80107E-01
-3.74301E-01
-3.45766E-01
-3.43387E-01
-3.10697E-01
-3.16424E-01
-2.85485E-01
-2.77310E-01
-2.46914E-01
-2.23444E-01
-1.99690E-01
-1.76488E-01
-1.52312E-01
-1.33960E-01
-1.03738E-01
-8.83949E-02
-5.90596E-02
-1.13285E-02
-2.35035E-03
 3.12961E-02
 5.81135E-02
 8.07930E-02
 1.13875E-01
 1.34494E-01
 1.56400E-01
 1.90185E-01
 2.16308E-01
 2.19606E-01
 2.53802E-01
 2.64258E-01
 3.04383E-01
 3.09493E-01
 3.26438E-01
 3.38713E-01
 3.43716E-01
 3.66978E-01
 3.89554E-01
 4.01033E-01
 4.12914E-01
 4.25501E-01
 4.48158E-01
 4.58911E-01
 4.84595E-01
 4.92655E-01
 5.22486E-01
 5.30081E-01
 5.27545E-01
 5.38148E-01
 5.56952E-01
-5.63924E-01
-5.44128E-01
-5.25761E-01
-5.18631E-01
-4.96266E-01
-4.69966E-01
-4.63617E-01
-4.58627E-01
-4.27611E-01
-4.14008E-01
-3.95276E-01
-3.81923E-01
-3.71990E-01
-3.59329E-01
-3.53410E-01
-3.26215E-01
-3.04472E-01
-2.96294E-01
-2.83940E-01
-2.53903E-01
-2.40838E-01
-2.26239E-01
-2.07495E-01
-1.82388E-01
-1.51971E-01
-1.32933E-01
-1.01624E-01
-9.41312E-02
-4.91238E-02
-2.65530E-02
-3.13551E-03
 3.64088E-02
 5.79685E-02
 7.52509E-02
 1.02771E-01
 1.45206E-01
 1.59635E-01
 1.73275E-01
 2.01886E-01
 2.20107E-01
 2.41333E-01
 2.56070E-01
 2.85241E-01
 2.97852E-01
 3.04157E-01
 3.24964E-01
 3.41521E-01
 3.67885E-01
 3.74900E-01
 3.88399E-01
 4.00138E-01
 4.08823E-01
 4.36315E-01
 4.45550E-01
 4.69270E-01
 4.80043E-01
 5.05405E-01
 5.20003E-01
 5.25630E-01
 5.33669E-01
 5.49256E-01
-5.44004E-01
-5.24335E-01
-5.20835E-01
-5.03164E-01
-4.74578E-01
-4.64505E-01
-4.55289E-01
-4.41850E-01
-4.19255E-01
-4.20271E-01
-3.94433E-01
-3.73618E-01
-3.59422E-01
-3.52295E-01
-3.36288E-01
-3.39161E-01
-3.00014E-01
-2.76831E-01
-2.75427E-01
-2.54296E-01
-2.27158E-01
-2.14752E-01
-1.94131E-01
-1.76194E-01
-1.57817E-01
-1.33462E-01
-1.14850E-01
-8.94571E-02
-6.49791E-02
-3.03232E-02
 8.26545E-03
 1.83699E-02
 5.67268E-02
 8.12893E-02
 1.11961E-01
 1.26893E-01
 1.53858E-01
 1.72343E-01
 1.98948E-01
 2.19057E-01
 2.47252E-01
 2.39865E-01
 2.78948E-01
 2.83304E-01
 3.04167E-01
 3.23010E-01
 3.43135E-01
 3.43056E-01
 3.71307E-01
 3.76519E-01
 3.99631E-01
 3.93602E-01
 4.14749E-01
 4.33069E-01
 4.50506E-01
 4.65992E-01
 4.86190E-01
 5.04004E-01
 5.12728E-01
 5.29174E-01
 5.31271E-01
-5.24689E-01
-5.05243E-01
-4.91243E-01
-4.91454E-01
-4.74196E-01
-4.53484E-01
-4.35478E-01
-4.27065E-01
-4.12011E-01
-4.06506E-01
-3.76876E-01
-3.73374E-01
-3.48624E-01
-3.41319E-01
-3.32619E-01
-2.96803E-01
-2.90531E-01
-2.66596E-01
-2.57031E-01
-2.46810E-01
-2.21207E-01
-1.94260E-01
-1.84182E-01
-1.64710E-01
-1.42760E-01
-1.27757E-01
-1.09192E-01
-8.49142E-02
-3.65556E-02
-2.68450E-02
 2.34917E-03
 2.57994E-02
 4.00337E-02
 7.21591E-02
 1.01149E-01
 1.37424E-01
 1.48847E-01
 1.71761E-01
 1.84369E-01
 2.01271E-01
 2.20933E-01
 2.45538E-01
 2.68039E-01
 2.84885E-01
 2.92944E-01
 3.06696E-01
 3.19328E-01
 3.42590E-01
 3.48165E-01
 3.70479E-01
 3.93486E-01
 4.03216E-01
 3.96538E-01
 4.26072E-01
 4.42062E-01
 4.54058E-01
 4.76289E-01
 4.84713E-01
 5.03170E-01
 5.21939E-01
 5.47950E-01
-5.08393E-01
-4.93065E-01
-5.00840E-01
-4.68554E-01
-4.65338E-01
-4.44989E-01
-4.23716E-01
-4.16786E-01
-3.88682E-01
-3.84851E-01
-3.63584E-01
-3.44857E-01
-3.36533E-01
-3.09570E-01
-3.07701E-01
-2.89457E-01
-2.65373E-01
-2.71158E-01
-2.57397E-01
-2.22171E-01
-2.09746E-01
-2.00824E-01
-1.70660E-01
-1.58862E-01
-1.55462E-01
-1.13097E-01
-1.09163E-01
-7.35626E-02
-5.48362E-02
-2.94152E-02
 1.40645E-02
 2.13958E-02
 4.54169E-02
 7.92949E-02
 9.65508E-02
 1.14816E-01
 1.41991E-01
 1.56843E-01
 1.72460E-01
 1.94479E-01
 2.19627E-01
 2.20343E-01
 2.60228E-01
 2.59501E-01
 2.76154E-01
 2.86488E-01
 3.12907E-01
 3.27167E-01
 3.40599E-01
 3.58914E-01
 3.71158E-01
 3.72014E-01
 3.94047E-01
 4.07247E-01
 4.17239E-01
 4.43633E-01
 4.63159E-01
 4.78425E-01
 4.84215E-01
 4.98108E-01
 5.19123E-01
-5.03386E-01
-4.96867E-01
-4.68838E-01
-4.45547E-01
-4.42304E-01
-4.41251E-01
-3.98030E-01
-4.01883E-01
-3.83669E-01
-3.68880E-01
-3.54230E-01
-3.28561E-01
-3.21030E-01
-3.08909E-01
-2.92836E-01
-2.73167E-01
-2.68693E-01
-2.55630E-01
-2.26867E-01
-2.21880E-01
-1.97972E-01
-1.86788E-01
-1.76322E-01
-1.56322E-01
-1.28205E-01
-1.11046E-01
-8.64464E-02
-6.12327E-02
-3.63613E-02
-2.63945E-02
-1.70469E-02
 1.57107E-02
 2.68814E-02
 6.72607E-02
 8.43647E-02
 9.91117E-02
 1.19100E-01
 1.35257E-01
 1.66839E-01
 1.98057E-01
 1.98843E-01
 2.28134E-01
 2.25684E-01
 2.51585E-01
 2.62506E-01
 2.89104E-01
 2.95449E-01
 3.04688E-01
 3.30617E-01
 3.30934E-01
 3.47799E-01
 3.83612E-01
 3.81054E-01
 3.99209E-01
 4.07805E-01
 4.21255E-01
 4.47450E-01
 4.55025E-01
 4.82897E-01
 4.88940E-01
 5.00059E-01
-5.00830E-01
-4.86889E-01
-4.61612E-01
-4.49092E-01
-4.29533E-01
-4.24448E-01
-3.91027E-01
-3.76559E-01
-3.48104E-01
-3.52166E-01
-3.31507E-01
-3.17881E-01
-3.03055E-01
-2.93751E-01
-2.71607E-01
-2.66146E-01
-2.59548E-01
-2.32165E-01
-2.20897E-01
-2.05173E-01
-1.69596E-01
-1.70872E-01
-1.54801E-01
-1.31603E-01
-1.24807E-01
-9.79521E-02
-7.48827E-02
-5.45721E-02
-3.77840E-02
-2.46316E-02
-1.28100E-02
 1.62032E-02
 2.22587E-02
 4.81229E-02
 6.74042E-02
 9.27511E-02
 1.07812E-01
 1.35897E-01
 1.48236E-01
 1.70435E-01
 1.79735E-01
 2.13263E-01
 2.20016E-01
 2.32918E-01
 2.52231E-01
 2.63957E-01
 2.75229E-01
 2.94283E-01
 3.02276E-01
 3.23848E-01
 3.27392E-01
 3.53796E-01
 3.60002E-01
 3.86398E-01
 3.87240E-01
 4.22907E-01
 4.39581E-01
 4.42154E-01
 4.69408E-01
 4.89794E-01
 5.02403E-01
-4.93474E-01
-4.71150E-01
-4.67069E-01
-4.25653E-01
-4.18837E-01
-3.93718E-01
-3.84611E-01
-3.67956E-01
-3.48729E-01
-3.47667E-01
-3.19512E-01
-3.08125E-01
-2.98572E-01
-2.81083E-01
-2.63417E-01
-2.57879E-01
-2.31704E-01
-2.21476E-01
-2.05971E-01
-1.81692E-01
-1.58378E-01
-1.52483E-01
-1.42606E-01
-1.05953E-01
-9.75711E-02
-8.09698E-02
-5.29003E-02
-3.70785E-02
-1.44336E-02
-7.38555E-03
 4.83132E-03
 1.31405E-02
 1.99709E-02
 4.39076E-02
 5.94722E-02
 6.45139E-02
 9.18138E-02
 1.13928E-01
 1.32624E-01
 1.56631E-01
 1.69094E-01
 1.85819E-01
 2.05380E-01
 2.23394E-01
 2.34977E-01
 2.41633E-01
 2.71642E-01
 2.72328E-01
 2.83836E-01
 2.89491E-01
 3.14924E-01
 3.35729E-01
 3.48981E-01
 3.68605E-01
 3.80785E-01
 3.91559E-01
 4.15970E-01
 4.44208E-01
 4.64856E-01
 4.57967E-01
 4.82140E-01
-4.69718E-01
-4.49636E-01
-4.37417E-01
-4.22812E-01
-4.01771E-01
-3.91336E-01
-3.73299E-01
-3.46353E-01
-3.31658E-01
-3.24981E-01
-2.94412E-01
-2.99614E-01
-2.77685E-01
-2.69988E-01
-2.47496E-01
-2.20865E-01
-2.14063E-01
-1.93766E-01
-1.75474E-01
-1.67061E-01
-1.58867E-01
-1.33062E-01
-1.15617E-01
-8.81865E-02
-6.19410E-02
-3.20699E-02
-2.51778E-02
-6.91279E-03
-1.01903E-02
-1.17561E-02
 9.73884E-03
 7.15066E-03
 1.96954E-03
 1.86636E-02
 3.28689E-02
 3.14535E-02
 7.45760E-02
 9.82733E-02
 1.11460E-01
 1.35467E-01
 1.46019E-01
 1.74134E-01
 1.80923E-01
 2.04299E-01
 2.14993E-01
 2.34198E-01
 2.49404E-01
 2.57307E-01
 2.77571E-01
 2.88205E-01
 2.93519E-01
 3.23452E-01
 3.31226E-01
 3.49198E-01
 3.74673E-01
 3.88816E-01
 4.06070E-01
 4.12701E-01
 4.46119E-01
 4.49126E-01
 4.75331E-01
-4.70108E-01
-4.49073E-01
-4.13089E-01
-4.02523E-01
-3.83974E-01
-3.87011E-01
-3.51385E-01
-3.26978E-01
-3.15424E-01
-2.93882E-01
-2.81699E-01
-2.77249E-01
-2.51878E-01
-2.38673E-01
-2.23738E-01
-2.09989E-01
-1.96660E-01
-1.67771E-01
-1.58384E-01
-1.47727E-01
-1.17328E-01
-1.02583E-01
-1.05223E-01
-5.05325E-02
-3.84130E-02
-1.91417E-02
-1.73022E-02
-2.05292E-02
-1.32054E-02
-5.91098E-03
-4.60991E-03
-9.87585E-03
 1.48597E-02
 2.16067E-02
 3.24818E-02
 2.42274E-02
 4.33253E-02
 5.74063E-02
 8.71066E-02
 9.93550E-02
 1.22764E-01
 1.50145E-01
 1.61150E-01
 1.80339E-01
 2.01615E-01
 2.04345E-01
 2.34329E-01
 2.37508E-01
 2.55222E-01
 2.71529E-01
 2.88267E-01
 2.97467E-01
 3.35238E-01
 3.32860E-01
 3.59927E-01
 3.72198E-01
 3.87251E-01
 3.95761E-01
 4.23408E-01
 4.52080E-01
 4.62510E-01
-4.58668E-01
-4.24355E-01
-4.12367E-01
-3.91916E-01
-3.78340E-01
-3.59971E-01
-3.38653E-01
-3.18213E-01
-3.07236E-01
-2.87258E-01
-2.69022E-01
-2.54363E-01
-2.42583E-01
-2.24647E-01
-2.04443E-01
-1.92190E-01
-1.63703E-01
-1.59459E-01
-1.41824E-01
-1.27837E-01
-9.80520E-02
-7.21841E-02
-5.06883E-02
-3.49232E-02
-3.35940E-02
-2.43987E-02
-1.63247E-02
-1.03528E-02
 1.10908E-03
 3.21169E-03
-8.04232E-03
 6.72649E-03
-7.87002E-04
 4.60915E-03
 1.86493E-02
 2.43851E-02
 2.40716E-02
 2.45694E-02
 3.71863E-02
 7.73715E-02
 1.10427E-01
 1.09557E-01
 1.39581E-01
 1.52261E-01
 1.80194E-01
 2.00077E-01
 2.02172E-01
 2.17497E-01
 2.34540E-01
 2.55268E-01
 2.68790E-01
 2.81255E-01
 3.08267E-01
 3.18237E-01
 3.41869E-01
 3.59551E-01
 3.71426E-01
 3.95830E-01
 4.05220E-01
 4.26138E-01
 4.53260E-01
-4.35451E-01
-4.28810E-01
-3.84690E-01
-3.74963E-01
-3.52770E-01
-3.44693E-01
-3.26649E-01
-3.04608E-01
-2.77246E-01
-2.67972E-01
-2.64933E-01
-2.47084E-01
-2.17886E-01
-2.07066E-01
-1.90624E-01
-1.80109E-01
-1.65891E-01
-1.37799E-01
-1.19884E-01
-1.06315E-01
-6.64782E-02
-4.51703E-02
-3.58073E-02
-2.43929E-02
-2.12147E-02
-7.95905E-03
-1.73983E-02
-1.06843E-02
 6.46904E-03
-7.59528E-03
-3.08579E-03
 4.82067E-03
 7.64807E-03
 1.63073E-02
 1.25245E-02
 3.03417E-02
 2.73838E-02
 1.79139E-02
 3.28187E-02
 5.67757E-02
 7.23451E-02
 9.78880E-02
 1.28956E-01
 1.35668E-01
 1.47581E-01
 1.70774E-01
 1.80502E-01
 1.94322E-01
 2.27404E-01
 2.27719E-01
 2.44857E-01
 2.58290E-01
 2.99118E-01
 3.16040E-01
 3.26711E-01
 3.28846E-01
 3.54563E-01
 3.68847E-01
 3.96050E-01
 4.10388E-01
 4.25579E-01
-4.31832E-01
-4.06679E-01
-3.75508E-01
-3.60729E-01
-3.44166E-01
-3.25341E-01
-3.03396E-01
-2.99957E-01
-2.71011E-01
-2.68922E-01
-2.40957E-01
-2.23371E-01
-1.97456E-01
-1.85930E-01
-1.64119E-01
-1.67182E-01
-1.31063E-01
-1.18977E-01
-9.69808E-02
-8.40946E-02
-4.88045E-02
-3.26811E-02
-2.41186E-02
-1.04849E-02
-1.72706E-02
-2.10943E-02
-1.29944E-02
-3.93278E-03
-2.44987E-02
-1.03212E-02
 7.40297E-04
 5.51125E-03
 3.77745E-03
 1.62827E-03
 6.08505E-03
 2.37782E-02
 2.01954E-02
 2.31716E-02
 4.61336E-02
 2.16695E-02
 6.06711E-02
 8.02296E-02
 1.10670E-01
 1.19081E-01
 1.22213E-01
 1.55103E-01
 1.66970E-01
 1.86250E-01
 2.00787E-01
 2.29286E-01
 2.40812E-01
 2.53205E-01
 2.69708E-01
 2.79053E-01
 3.15785E-01
 3.13151E-01
 3.49942E-01
 3.64165E-01
 3.88424E-01
 4.15936E-01
 4.22799E-01
-4.10252E-01
-3.98754E-01
-3.73373E-01
-3.46940E-01
-3.43558E-01
-3.27854E-01
-2.96750E-01
-2.77733E-01
-2.65323E-01
-2.49348E-01
-2.27616E-01
-2.09760E-01
-1.82125E-01
-1.86141E-01
-1.45349E-01
-1.36625E-01
-1.19289E-01
-1.03333E-01
-7.74160E-02
-6.45689E-02
-4.86464E-02
-3.14203E-02
-1.58556E-02
-3.07194E-02
-2.25399E-02
-1.94433E-02
-2.41171E-02
-1.28531E-02
-2.94952E-03
-6.56469E-03
 4.33021E-03
 4.48916E-03
 1.62064E-02
 4.68063E-03
 2.32108E-03
 2.99228E-02
 2.45180E-02
 1.76792E-02
 2.95858E-02
 4.18718E-02
 4.55083E-02
 6.32732E-02
 8.89106E-02
 9.94511E-02
 1.14903E-01
 1.34325E-01
 1.55173E-01
 1.61134E-01
 1.74849E-01
 1.94932E-01
 2.22852E-01
 2.44821E-01
 2.52906E-01
 2.82940E-01
 2.89486E-01
 3.23869E-01
 3.27174E-01
 3.43718E-01
 3.63833E-01
 3.92748E-01
 4.12718E-01
-4.06955E-01
-3.89716E-01
-3.63354E-01
-3.45214E-01
-3.30142E-01
-3.04297E-01
-2.87412E-01
-2.77199E-01
-2.46335E-01
-2.38978E-01
-2.14703E-01
-1.99337E-01
-1.74674E-01
-1.42636E-01
-1.34888E-01
-1.10310E-01
-8.75626E-02
-9.17420E-02
-7.09136E-02
-3.69777E-02
-3.77405E-02
-3.17067E-02
-3.57711E-02
-1.80598E-02
-2.47913E-02
-1.61225E-02
-1.35931E-02
-1.07135E-02
-2.40516E-03
 2.36300E-03
 2.35099E-03
 6.65502E-03
 8.48001E-03
 3.59323E-03
 3.71613E-03
 2.87910E-02
 1.22767E-02
 7.00377E-03
 3.42415E-02
 3.24758E-02
 4.32920E-02
 4.25412E-02
 6.48855E-02
 8.60974E-02
 9.61460E-02
 1.18275E-01
 1.36906E-01
 1.49237E-01
 1.86823E-01
 1.88444E-01
 2.29022E-01
 2.28364E-01
 2.52644E-01
 2.58830E-01
 2.88513E-01
 3.03081E-01
 3.33768E-01
 3.37762E-01
 3.58422E-01
 3.86942E-01
 4.09820E-01
-4.13304E-01
-3.70482E-01
-3.61919E-01
-3.39947E-01
-3.13225E-01
-2.92034E-01