# vtk DataFile Version 2.0
Output of NLACE
ASCII
DATASET UNSTRUCTURED_GRID
POINTS         3402 FLOAT
 1.095652E+00 -6.180602E+00  0.000000E+00
 1.582609E+00 -6.180602E+00  0.000000E+00
 2.069565E+00 -6.180602E+00  0.000000E+00
 2.556522E+00 -6.180602E+00  0.000000E+00
 3.043478E+00 -6.180602E+00  0.000000E+00
 3.530435E+00 -6.180602E+00  0.000000E+00
 4.017391E+00 -6.180602E+00  0.000000E+00
 4.504348E+00 -6.180602E+00  0.000000E+00
 4.991304E+00 -6.180602E+00  0.000000E+00
 5.478261E+00 -6.180602E+00  0.000000E+00
 5.965217E+00 -6.180602E+00  0.000000E+00
 6.452174E+00 -6.180602E+00  0.000000E+00
 6.939130E+00 -6.180602E+00  0.000000E+00
 7.426087E+00 -6.180602E+00  0.000000E+00
 7.913043E+00 -6.180602E+00  0.000000E+00
 8.400000E+00 -6.180602E+00  0.000000E+00
 8.886957E+00 -6.180602E+00  0.000000E+00
 9.373913E+00 -6.180602E+00  0.000000E+00
 9.860870E+00 -6.180602E+00  0.000000E+00
 1.034783E+01 -6.180602E+00  0.000000E+00
 1.083478E+01 -6.180602E+00  0.000000E+00
 1.132174E+01 -6.180602E+00  0.000000E+00
 1.180870E+01 -6.180602E+00  0.000000E+00
 1.229565E+01 -6.180602E+00  0.000000E+00
 1.278261E+01 -6.180602E+00  0.000000E+00
 1.326957E+01 -6.180602E+00  0.000000E+00
 1.375652E+01 -6.180602E+00  0.000000E+00
 1.424348E+01 -6.180602E+00  0.000000E+00
 1.473043E+01 -6.180602E+00  0.000000E+00
 1.521739E+01 -6.180602E+00  0.000000E+00
 1.570435E+01 -6.180602E+00  0.000000E+00
 1.619130E+01 -6.180602E+00  0.000000E+00
 1.667826E+01 -6.180602E+00  0.000000E+00
 1.716522E+01 -6.180602E+00  0.000000E+00
 1.765217E+01 -6.180602E+00  0.000000E+00
 1.813913E+01 -6.180602E+00  0.000000E+00
 1.862609E+01 -6.180602E+00  0.000000E+00
 1.911304E+01 -6.180602E+00  0.000000E+00
 1.960000E+01 -6.180602E+00  0.000000E+00
 2.008696E+01 -6.180602E+00  0.000000E+00
 2.057391E+01 -6.180602E+00  0.000000E+00
 2.106087E+01 -6.180602E+00  0.000000E+00
 2.154783E+01 -6.180602E+00  0.000000E+00
 2.203478E+01 -6.180602E+00  0.000000E+00
 2.252174E+01 -6.180602E+00  0.000000E+00
 2.300870E+01 -6.180602E+00  0.000000E+00
 2.349565E+01 -6.180602E+00  0.000000E+00
 2.398261E+01 -6.180602E+00  0.000000E+00
 2.446957E+01 -6.180602E+00  0.000000E+00
 2.495652E+01 -6.180602E+00  0.000000E+00
 2.544348E+01 -6.180602E+00  0.000000E+00
 2.593043E+01 -6.180602E+00  0.000000E+00
 2.641739E+01 -6.180602E+00  0.000000E+00
 2.690435E+01 -6.180602E+00  0.000000E+00
 1.095652E+00 -6.798662E+00  0.000000E+00
 1.582609E+00 -6.798662E+00  0.000000E+00
 2.069565E+00 -6.798662E+00  0.000000E+00
 2.556522E+00 -6.798662E+00  0.000000E+00
 3.043478E+00 -6.798662E+00  0.000000E+00
 3.530435E+00 -6.798662E+00  0.000000E+00
 4.017391E+00 -6.798662E+00  0.000000E+00
 4.504348E+00 -6.798662E+00  0.000000E+00
 4.991304E+00 -6.798662E+00  0.000000E+00
 5.478261E+00 -6.798662E+00  0.000000E+00
 5.965217E+00 -6.798662E+00  0.000000E+00
 6.452174E+00 -6.798662E+00  0.000000E+00
 6.939130E+00 -6.798662E+00  0.000000E+00
 7.426087E+00 -6.798662E+00  0.000000E+00
 7.913043E+00 -6.798662E+00  0.000000E+00
 8.400000E+00 -6.798662E+00  0.000000E+00
 8.886957E+00 -6.798662E+00  0.000000E+00
 9.373913E+00 -6.798662E+00  0.000000E+00
 9.860870E+00 -6.798662E+00  0.000000E+00
 1.034783E+01 -6.798662E+00  0.000000E+00
 1.083478E+01 -6.798662E+00  0.000000E+00
 1.132174E+01 -6.798662E+00  0.000000E+00
 1.180870E+01 -6.798662E+00  0.000000E+00
 1.229565E+01 -6.798662E+00  0.000000E+00
 1.278261E+01 -6.798662E+00  0.000000E+00
 1.326957E+01 -6.798662E+00  0.000000E+00
 1.375652E+01 -6.798662E+00  0.000000E+00
 1.424348E+01 -6.798662E+00  0.000000E+00
 1.473043E+01 -6.798662E+00  0.000000E+00
 1.521739E+01 -6.798662E+00  0.000000E+00
 1.570435E+01 -6.798662E+00  0.000000E+00
 1.619130E+01 -6.798662E+00  0.000000E+00
 1.667826E+01 -6.798662E+00  0.000000E+00
 1.716522E+01 -6.798662E+00  0.000000E+00
 1.765217E+01 -6.798662E+00  0.000000E+00
 1.813913E+01 -6.798662E+00  0.000000E+00
 1.862609E+01 -6.798662E+00  0.000000E+00
 1.911304E+01 -6.798662E+00  0.000000E+00
 1.960000E+01 -6.798662E+00  0.000000E+00
 2.008696E+01 -6.798662E+00  0.000000E+00
 2.057391E+01 -6.798662E+00  0.000000E+00
 2.106087E+01 -6.798662E+00  0.000000E+00
 2.154783E+01 -6.798662E+00  0.000000E+00
 2.203478E+01 -6.798662E+00  0.000000E+00
 2.252174E+01 -6.798662E+00  0.000000E+00
 2.300870E+01 -6.798662E+00  0.000000E+00
 2.349565E+01 -6.798662E+00  0.000000E+00
 2.398261E+01 -6.798662E+00  0.000000E+00
 2.446957E+01 -6.798662E+00  0.000000E+00
 2.495652E+01 -6.798662E+00  0.000000E+00
 2.544348E+01 -6.798662E+00  0.000000E+00
 2.593043E+01 -6.798662E+00  0.000000E+00
 2.641739E+01 -6.798662E+00  0.000000E+00
 2.690435E+01 -6.798662E+00  0.000000E+00
 1.095652E+00 -7.416722E+00  0.000000E+00
 1.582609E+00 -7.416722E+00  0.000000E+00
 2.069565E+00 -7.416722E+00  0.000000E+00
 2.556522E+00 -7.416722E+00  0.000000E+00
 3.043478E+00 -7.416722E+00  0.000000E+00
 3.530435E+00 -7.416722E+00  0.000000E+00
 4.017391E+00 -7.416722E+00  0.000000E+00
 4.504348E+00 -7.416722E+00  0.000000E+00
 4.991304E+00 -7.416722E+00  0.000000E+00
 5.478261E+00 -7.416722E+00  0.000000E+00
 5.965217E+00 -7.416722E+00  0.000000E+00
 6.452174E+00 -7.416722E+00  0.000000E+00
 6.939130E+00 -7.416722E+00  0.000000E+00
 7.426087E+00 -7.416722E+00  0.000000E+00
 7.913043E+00 -7.416722E+00  0.000000E+00
 8.400000E+00 -7.416722E+00  0.000000E+00
 8.886957E+00 -7.416722E+00  0.000000E+00
 9.373913E+00 -7.416722E+00  0.000000E+00
 9.860870E+00 -7.416722E+00  0.000000E+00
 1.034783E+01 -7.416722E+00  0.000000E+00
 1.083478E+01 -7.416722E+00  0.000000E+00
 1.132174E+01 -7.416722E+00  0.000000E+00
 1.180870E+01 -7.416722E+00  0.000000E+00
 1.229565E+01 -7.416722E+00  0.000000E+00
 1.278261E+01 -7.416722E+00  0.000000E+00
 1.326957E+01 -7.416722E+00  0.000000E+00
 1.375652E+01 -7.416722E+00  0.000000E+00
 1.424348E+01 -7.416722E+00  0.000000E+00
 1.473043E+01 -7.416722E+00  0.000000E+00
 1.521739E+01 -7.416722E+00  0.000000E+00
 1.570435E+01 -7.416722E+00  0.000000E+00
 1.619130E+01 -7.416722E+00  0.000000E+00
 1.667826E+01 -7.416722E+00  0.000000E+00
 1.716522E+01 -7.416722E+00  0.000000E+00
 1.765217E+01 -7.416722E+00  0.000000E+00
 1.813913E+01 -7.416722E+00  0.000000E+00
 1.862609E+01 -7.416722E+00  0.000000E+00
 1.911304E+01 -7.416722E+00  0.000000E+00
 1.960000E+01 -7.416722E+00  0.000000E+00
 2.008696E+01 -7.416722E+00  0.000000E+00
 2.057391E+01 -7.416722E+00  0.000000E+00
 2.106087E+01 -7.416722E+00  0.000000E+00
 2.154783E+01 -7.416722E+00  0.000000E+00
 2.203478E+01 -7.416722E+00  0.000000E+00
 2.252174E+01 -7.416722E+00  0.000000E+00
 2.300870E+01 -7.416722E+00  0.000000E+00
 2.349565E+01 -7.416722E+00  0.000000E+00
 2.398261E+01 -7.416722E+00  0.000000E+00
 2.446957E+01 -7.416722E+00  0.000000E+00
 2.495652E+01 -7.416722E+00  0.000000E+00
 2.544348E+01 -7.416722E+00  0.000000E+00
 2.593043E+01 -7.416722E+00  0.000000E+00
 2.641739E+01 -7.416722E+00  0.000000E+00
 2.690435E+01 -7.416722E+00  0.000000E+00
 1.095652E+00 -8.034783E+00  0.000000E+00
 1.582609E+00 -8.034783E+00  0.000000E+00
 2.069565E+00 -8.034783E+00  0.000000E+00
 2.556522E+00 -8.034783E+00  0.000000E+00
 3.043478E+00 -8.034783E+00  0.000000E+00
 3.530435E+00 -8.034783E+00  0.000000E+00
 4.017391E+00 -8.034783E+00  0.000000E+00
 4.504348E+00 -8.034783E+00  0.000000E+00
 4.991304E+00 -8.034783E+00  0.000000E+00
 5.478261E+00 -8.034783E+00  0.000000E+00
 5.965217E+00 -8.034783E+00  0.000000E+00
 6.452174E+00 -8.034783E+00  0.000000E+00
 6.939130E+00 -8.034783E+00  0.000000E+00
 7.426087E+00 -8.034783E+00  0.000000E+00
 7.913043E+00 -8.034783E+00  0.000000E+00
 8.400000E+00 -8.034783E+00  0.000000E+00
 8.886957E+00 -8.034783E+00  0.000000E+00
 9.373913E+00 -8.034783E+00  0.000000E+00
 9.860870E+00 -8.034783E+00  0.000000E+00
 1.034783E+01 -8.034783E+00  0.000000E+00
 1.083478E+01 -8.034783E+00  0.000000E+00
 1.132174E+01 -8.034783E+00  0.000000E+00
 1.180870E+01 -8.034783E+00  0.000000E+00
 1.229565E+01 -8.034783E+00  0.000000E+00
 1.278261E+01 -8.034783E+00  0.000000E+00
 1.326957E+01 -8.034783E+00  0.000000E+00
 1.375652E+01 -8.034783E+00  0.000000E+00
 1.424348E+01 -8.034783E+00  0.000000E+00
 1.473043E+01 -8.034783E+00  0.000000E+00
 1.521739E+01 -8.034783E+00  0.000000E+00
 1.570435E+01 -8.034783E+00  0.000000E+00
 1.619130E+01 -8.034783E+00  0.000000E+00
 1.667826E+01 -8.034783E+00  0.000000E+00
 1.716522E+01 -8.034783E+00  0.000000E+00
 1.765217E+01 -8.034783E+00  0.000000E+00
 1.813913E+01 -8.034783E+00  0.000000E+00
 1.862609E+01 -8.034783E+00  0.000000E+00
 1.911304E+01 -8.034783E+00  0.000000E+00
 1.960000E+01 -8.034783E+00  0.000000E+00
 2.008696E+01 -8.034783E+00  0.000000E+00
 2.057391E+01 -8.034783E+00  0.000000E+00
 2.106087E+01 -8.034783E+00  0.000000E+00
 2.154783E+01 -8.034783E+00  0.000000E+00
 2.203478E+01 -8.034783E+00  0.000000E+00
 2.252174E+01 -8.034783E+00  0.000000E+00
 2.300870E+01 -8.034783E+00  0.000000E+00
 2.349565E+01 -8.034783E+00  0.000000E+00
 2.398261E+01 -8.034783E+00  0.000000E+00
 2.446957E+01 -8.034783E+00  0.000000E+00
 2.495652E+01 -8.034783E+00  0.000000E+00
 2.544348E+01 -8.034783E+00  0.000000E+00
 2.593043E+01 -8.034783E+00  0.000000E+00
 2.641739E+01 -8.034783E+00  0.000000E+00
 2.690435E+01 -8.034783E+00  0.000000E+00
 1.095652E+00 -8.652843E+00  0.000000E+00
 1.582609E+00 -8.652843E+00  0.000000E+00
 2.069565E+00 -8.652843E+00  0.000000E+00
 2.556522E+00 -8.652843E+00  0.000000E+00
 3.043478E+00 -8.652843E+00  0.000000E+00
 3.530435E+00 -8.652843E+00  0.000000E+00
 4.017391E+00 -8.652843E+00  0.000000E+00
 4.504348E+00 -8.652843E+00  0.000000E+00
 4.991304E+00 -8.652843E+00  0.000000E+00
 5.478261E+00 -8.652843E+00  0.000000E+00
 5.965217E+00 -8.652843E+00  0.000000E+00
 6.452174E+00 -8.652843E+00  0.000000E+00
 6.939130E+00 -8.652843E+00  0.000000E+00
 7.426087E+00 -8.652843E+00  0.000000E+00
 7.913043E+00 -8.652843E+00  0.000000E+00
 8.400000E+00 -8.652843E+00  0.000000E+00
 8.886957E+00 -8.652843E+00  0.000000E+00
 9.373913E+00 -8.652843E+00  0.000000E+00
 9.860870E+00 -8.652843E+00  0.000000E+00
[...]
POINT_DATA         3402
 SCALARS measuredDisp11 float  1                   
LOOKUP_TABLE default
-2.57694E-01
-2.63230E-01
-2.21465E-01
-2.19416E-01
-2.26277E-01
-2.39747E-01
-2.63004E-01
-2.57043E-01
-2.65930E-01
-2.75123E-01
-2.47156E-01
-2.45756E-01
-2.48516E-01
-2.34600E-01
-2.32829E-01
-2.22310E-01
-1.40172E-01
-2.14566E-01
-1.87459E-01
-2.00527E-01
-2.56516E-01
-1.92752E-01
-1.57810E-01
-1.73482E-01
-1.60769E-01
-1.89283E-01
-1.79766E-01
-1.46439E-01
-1.71221E-01
-1.61117E-01
-1.43834E-01
-1.61291E-01
-1.49166E-01
-1.39057E-01
-1.35301E-01
-1.31509E-01
-1.36195E-01
-1.11581E-01
-1.19125E-01
-1.16186E-01
-1.02150E-01
-1.25090E-01
-1.12678E-01
-1.21658E-01
-9.42420E-02
-9.52780E-02
-1.02625E-01
-5.72180E-02
-4.06010E-02
-5.06980E-02
-1.33680E-01
-7.44250E-02
-1.04687E-01
-9.17720E-02
-2.52295E-01
-3.05538E-01
-2.74569E-01
-2.31873E-01
-2.24991E-01
-2.32795E-01
-2.58912E-01
-2.23594E-01
-2.36535E-01
-2.75256E-01
-2.47347E-01
-2.49457E-01
-2.39602E-01
-2.61259E-01
-1.95552E-01
-2.14788E-01
-1.71459E-01
-1.60917E-01
-1.93910E-01
-2.04493E-01
-2.10660E-01
-1.69509E-01
-1.75351E-01
-2.05595E-01
-1.63341E-01
-1.43729E-01
-1.62950E-01
-1.66493E-01
-1.67158E-01
-1.59054E-01
-1.51643E-01
-1.39311E-01
-1.91574E-01
-1.72655E-01
-1.56170E-01
-1.43002E-01
-1.18174E-01
-1.17260E-01
-1.01866E-01
-1.08029E-01
-7.18420E-02
-9.87450E-02
-1.39380E-01
-1.33916E-01
-9.76630E-02
-6.70550E-02
-4.82850E-02
-6.82660E-02
-7.97100E-02
-3.98180E-02
-4.77000E-02
-6.11420E-02
-9.04880E-02
-5.97360E-02
-2.83122E-01
-2.69103E-01
-2.49402E-01
-2.40391E-01
-2.56699E-01
-2.63519E-01
-2.60048E-01
-2.47802E-01
-2.45945E-01
-2.65586E-01
-2.56908E-01
-2.27176E-01
-2.06094E-01
-2.14522E-01
-2.39657E-01
-2.22011E-01
-2.22267E-01
-1.90709E-01
-1.97216E-01
-1.99832E-01
-1.94817E-01
-2.08340E-01
-1.99014E-01
-1.94365E-01
-2.01158E-01
-1.81960E-01
-1.61315E-01
-1.45646E-01
-1.62061E-01
-2.43738E-01
-2.06487E-01
-1.31866E-01
-1.52178E-01
-1.30492E-01
-9.65490E-02
-8.57100E-02
-1.46668E-01
-1.73469E-01
-1.34119E-01
-7.51670E-02
-9.81680E-02
-9.92290E-02
-8.82120E-02
-1.15140E-01
-9.09320E-02
-8.93370E-02
-8.87480E-02
-1.00347E-01
-1.36353E-01
-1.12383E-01
-6.22520E-02
-6.21050E-02
-2.21110E-02
-1.16350E-02
-2.98010E-01
-2.75667E-01
-2.68467E-01
-2.68280E-01
-2.49931E-01
-2.63131E-01
-2.47682E-01
-2.18576E-01
-2.46061E-01
-2.57977E-01
-2.34898E-01
-2.30715E-01
-2.22464E-01
-2.22677E-01
-2.38323E-01
-2.25302E-01
-2.37280E-01
-1.94769E-01
-1.84037E-01
-1.58971E-01
-1.59199E-01
-1.83827E-01
-1.77914E-01
-1.80323E-01
-1.94223E-01
-2.12951E-01
-1.44259E-01
-1.43823E-01
-1.59116E-01
-2.17010E-01
-2.11639E-01
-1.51925E-01
-1.53335E-01
-1.80783E-01
-1.31177E-01
-1.22231E-01
-1.20241E-01
-1.22275E-01
-1.23052E-01
-1.22428E-01
-1.23508E-01
-1.28050E-01
-1.12108E-01
-9.14060E-02
-6.16480E-02
-9.54770E-02
-7.96830E-02
-1.22177E-01
-1.16552E-01
-9.99160E-02
-9.32040E-02
-7.26540E-02
-4.68450E-02
-4.82460E-02
-2.96771E-01
-2.72353E-01
-2.53271E-01
-2.42768E-01
-2.41629E-01
-2.52024E-01
-2.28384E-01
-2.19628E-01
-2.77208E-01
-2.58950E-01
-2.44664E-01
-2.37490E-01
-2.63559E-01
-2.41017E-01
-2.94086E-01
-3.33194E-01
-2.67733E-01
-1.82993E-01
-1.62985E-01
-1.77367E-01
-1.86450E-01
-1.94429E-01
-2.13996E-01
-1.98134E-01
-1.61715E-01
-1.58307E-01
-1.35126E-01
-1.51710E-01
-1.99201E-01
-1.95128E-01
-1.51952E-01
-1.20318E-01
-1.13837E-01
-1.17621E-01
-1.21577E-01
-1.14222E-01
-9.85410E-02
-4.40530E-02
-1.05125E-01
-1.48648E-01
-1.61734E-01
-1.31999E-01
-8.10390E-02
-1.36659E-01
-1.06308E-01
-9.13230E-02
-9.42390E-02
-1.20892E-01
-1.16296E-01
-8.46230E-02
-6.85320E-02
-6.32500E-02
-5.78900E-02
-5.31410E-02
-2.91717E-01
-2.59636E-01
-2.54753E-01
-2.50324E-01
-2.49025E-01
-2.36863E-01
-2.43818E-01
-2.55124E-01
-2.57002E-01
-2.46146E-01
-2.63670E-01
-2.46441E-01
-2.44489E-01
-2.26256E-01
-2.26737E-01
-2.50332E-01
-2.68864E-01
-2.12760E-01
-1.55727E-01
-1.53280E-01
-2.00293E-01
-1.50537E-01
-1.54174E-01
-1.68990E-01
-2.72638E-01
-1.76648E-01
-1.56734E-01
-1.92532E-01
-1.64068E-01
-1.48078E-01
-1.61229E-01
-1.60090E-01
-1.21969E-01
-1.19358E-01
-2.08490E-01
-1.36090E-01
-1.34525E-01
-1.26491E-01
-1.45440E-01
-1.62681E-01
-9.46720E-02
-9.45320E-02
-1.23549E-01
-1.22916E-01
-1.05356E-01
-1.01456E-01
-8.86870E-02
-8.67360E-02
-9.50680E-02
-7.31060E-02
-5.15830E-02
-7.88020E-02
-7.73120E-02
-4.19070E-02
-3.06805E-01
-2.74653E-01
-2.73195E-01
-2.72896E-01
-2.61219E-01
-2.40196E-01
-2.39308E-01
-2.88289E-01
-2.56753E-01
-2.05830E-01
-2.76557E-01
-2.30782E-01
-1.77984E-01
-2.91550E-01
-2.42666E-01
-2.51759E-01
-2.01703E-01
-1.45395E-01
-2.01290E-01
-1.74259E-01
-2.26674E-01
-1.79927E-01
-1.58730E-01
-1.81628E-01
-2.35521E-01
-1.91398E-01
-1.40488E-01
-1.20573E-01
-1.25924E-01
-1.58546E-01
-1.59186E-01
-1.82920E-01
-1.57877E-01
-1.49017E-01
-1.36322E-01
-1.17432E-01
-1.23115E-01
-1.41730E-01
-1.20327E-01
-1.20796E-01
-1.22071E-01
-1.31239E-01
-1.14253E-01
-1.16119E-01
-9.66890E-02
-8.33940E-02
-8.43870E-02
-8.04900E-02
-5.50550E-02
-6.57780E-02
-6.23580E-02
-6.31280E-02
-4.60920E-02
-5.99180E-02
-2.55931E-01
-2.31079E-01
-2.30481E-01
-2.95722E-01
-3.07598E-01
-2.45912E-01
-2.93041E-01
-2.96804E-01
-2.90763E-01
-2.49267E-01
-2.21205E-01
-2.75871E-01
-2.36603E-01
-1.68418E-01
-2.10443E-01
-1.80289E-01
-1.98912E-01
-2.06691E-01
-2.62208E-01
-2.71367E-01
-2.18207E-01
-2.08657E-01
-1.73765E-01
-1.62918E-01
-1.79197E-01
-1.68267E-01
-1.74521E-01
-1.65919E-01
-1.78205E-01
-1.46656E-01
-1.44838E-01
-1.77636E-01
-1.26620E-01
-1.24012E-01
-9.76220E-02
-9.09450E-02
-1.28275E-01
-1.06928E-01
-7.97540E-02
-8.83220E-02
-1.03002E-01
-9.85780E-02
-1.12144E-01
-1.09298E-01
-9.20760E-02
-6.57860E-02
-8.88540E-02
-9.96970E-02
-7.74970E-02
-8.25330E-02
-5.60780E-02
-3.77680E-02
-3.26150E-02
-4.57360E-02
-2.54905E-01
-2.43469E-01
-2.44023E-01
-2.50838E-01
-2.66533E-01
-2.36158E-01
-3.12499E-01
-2.74415E-01
-2.27896E-01
-2.08604E-01
-1.91381E-01
-2.51927E-01
-2.69003E-01
-2.28802E-01
-1.92046E-01
-2.17223E-01
-2.33673E-01
-2.15627E-01
-2.12745E-01
-2.47138E-01
-2.15011E-01
-2.15307E-01
-1.52448E-01
-1.41674E-01
-1.50883E-01
-1.43256E-01
-1.39209E-01
-1.33521E-01
-1.90892E-01
-1.68987E-01
-1.42549E-01
-1.36796E-01
-1.37939E-01
-1.37742E-01
-1.48580E-01
-1.34248E-01
-1.05272E-01
-9.91110E-02
-8.91730E-02
-1.22942E-01
-1.16215E-01
-1.10591E-01
-1.09448E-01
-1.03518E-01
-9.77520E-02
-1.08664E-01
-9.05150E-02
-7.89560E-02
-6.79730E-02
-6.71580E-02
-9.48240E-02
-7.85580E-02
-7.22900E-02
-1.02668E-01
-2.74562E-01
-2.54694E-01
-2.70975E-01
-3.20541E-01
-2.75974E-01
-2.58599E-01
-2.41964E-01
-2.39776E-01
-2.39901E-01
-2.57201E-01
-2.01604E-01
-1.90372E-01
-2.33706E-01
-2.78421E-01
-2.69100E-01
-2.12912E-01
-2.25431E-01
-2.16495E-01
-2.07730E-01
-2.39423E-01
-2.38401E-01
-2.12093E-01
-1.80106E-01
-1.79805E-01
-1.75561E-01
-1.92084E-01
-1.57173E-01
-1.35591E-01
-1.32963E-01
-1.31315E-01
-1.65242E-01
-1.43403E-01
-1.48512E-01
-1.23607E-01
-1.09389E-01
-1.21436E-01
-1.08041E-01
-1.27497E-01
-1.14368E-01
-1.18456E-01
-1.23115E-01
-1.20895E-01
-7.78500E-02
-1.00367E-01
-1.16273E-01
-1.01078E-01
-8.67690E-02
-8.62370E-02
-6.57900E-02
-5.43150E-02
-4.63990E-02
-3.98430E-02
-1.17573E-01
-1.04584E-01
-3.01692E-01
-2.77096E-01
-3.15476E-01
-3.07201E-01
-2.61803E-01
-2.47937E-01
-2.41994E-01
-2.58687E-01
-2.57417E-01
-2.38984E-01
-2.07598E-01
-2.15222E-01
-2.26445E-01
-2.14910E-01
-2.29531E-01
-2.26726E-01
-2.23156E-01
-2.27966E-01
-2.15226E-01
-2.03770E-01
-1.90585E-01
-2.12439E-01
-2.20944E-01
-2.05507E-01
-1.64289E-01
-1.59118E-01
-1.45045E-01
-1.65342E-01
-1.42069E-01
-1.38850E-01
-1.79970E-01
-1.49749E-01
-1.46805E-01
-1.46028E-01
-1.56191E-01
-1.15965E-01
-9.85400E-02
-1.29588E-01
-1.16423E-01
-1.09201E-01
-1.14265E-01
-8.73660E-02
-5.44640E-02
-6.49050E-02
-9.74640E-02
-8.69570E-02
-1.01601E-01
-1.36741E-01
-4.70230E-02
-5.57860E-02
-6.63890E-02
-3.23020E-02
-9.88720E-02
-9.43740E-02
-2.90797E-01
-2.90617E-01
-2.94730E-01
-2.73107E-01
-2.45164E-01
-2.60059E-01
-2.49434E-01
-2.53652E-01
-2.65793E-01
-2.60097E-01
-2.39887E-01
-2.31014E-01
-2.40156E-01
-1.94097E-01
-1.96068E-01
-2.21756E-01
-2.01167E-01
-2.18854E-01
-1.83468E-01
-1.93966E-01
-2.07493E-01
-2.58563E-01
-2.15028E-01
-1.99464E-01
-1.83607E-01
-1.67182E-01
-1.51672E-01
-1.96783E-01
-1.83107E-01
-1.63449E-01
-1.45593E-01
-1.40677E-01
-1.04976E-01
-1.04244E-01
-1.11106E-01
-5.45700E-02
-1.30666E-01
-1.16538E-01
-8.93050E-02
-8.53190E-02
-1.00525E-01
-1.17911E-01
-1.40275E-01
-8.13650E-02
-1.10069E-01
-1.26778E-01
-1.03013E-01
-6.99750E-02
-7.00760E-02
-6.40770E-02
-5.45230E-02
-2.39880E-02
-3.31180E-02
-2.07560E-02
-2.59515E-01
-2.58273E-01
-2.54436E-01
-2.56491E-01
-2.32351E-01
-2.47503E-01
-2.58287E-01
-2.35707E-01
-2.25836E-01
-2.73531E-01
-2.75243E-01
-2.18492E-01
-1.52059E-01
-2.23361E-01
-2.65437E-01
-1.79431E-01
-2.58163E-01
-2.19222E-01
-2.61438E-01
-2.19301E-01
-1.60299E-01
-1.51764E-01
-1.85678E-01
-1.93275E-01
-1.74893E-01
-1.84459E-01
-1.55266E-01
-1.13252E-01
-1.17174E-01
-1.22324E-01
-1.31902E-01
-1.33864E-01
-1.43269E-01
-1.44914E-01
-1.45085E-01
-1.34957E-01
-1.14889E-01
-1.10103E-01
-1.15252E-01
-9.70400E-02
-7.84450E-02
-1.28233E-01
-6.17810E-02
-8.32020E-02
-8.41940E-02
-8.27700E-02
-7.12640E-02
-3.05580E-02
-3.33770E-02
-5.49060E-02
-7.12670E-02
-4.95780E-02
-4.28930E-02
-9.06500E-02
-2.77211E-01
-2.59062E-01
-2.95079E-01
-2.47815E-01
-2.19820E-01
-2.14653E-01
-2.39244E-01
-2.72665E-01
-2.70274E-01
-2.75232E-01
-2.68149E-01
-2.41583E-01
-2.00891E-01
-2.04558E-01
-2.22675E-01
-2.13860E-01
-2.20343E-01
-2.02688E-01
-2.04419E-01
-1.92234E-01
-1.67463E-01
-1.63207E-01
-2.03810E-01
-2.12751E-01
-1.97202E-01
-1.92703E-01
-1.53802E-01
-1.69885E-01
-1.94236E-01
-1.19407E-01
-1.03514E-01
-1.04681E-01
-1.34715E-01
-1.01198E-01
-1.73821E-01
-1.05697E-01
-7.76020E-02
-9.26690E-02
-1.09503E-01
-1.36579E-01
-1.20903E-01
-9.69260E-02
-4.21800E-02
-8.55870E-02
-5.15320E-02
-5.50900E-02
-5.40500E-02
-8.31700E-02
-1.26732E-01
-1.08445E-01
-5.86050E-02
-5.64600E-02
-4.60370E-02
-9.09760E-02
-2.71940E-01
-2.63288E-01
-2.62960E-01
-2.40761E-01
-2.81136E-01
-2.46555E-01
-2.56806E-01
-2.52121E-01
-2.62722E-01
-2.84367E-01
-2.68276E-01
-2.34231E-01
-1.95121E-01
-1.94055E-01
-1.99548E-01
-1.89752E-01
-2.23749E-01
-2.30581E-01
-2.03287E-01
-1.70112E-01
-1.42841E-01
-1.64744E-01
-2.29067E-01
-2.20563E-01
-1.92668E-01
-1.94770E-01
-1.59199E-01
-1.10418E-01
-1.42511E-01
-1.54282E-01
-1.71774E-01
-1.71935E-01
-1.48764E-01
-1.08097E-01
-1.12922E-01
-1.02869E-01
-1.03174E-01
-1.06275E-01
-1.07765E-01
-7.49790E-02
-8.35010E-02
-8.69750E-02
-9.15510E-02
-1.12187E-01
-1.16396E-01
-9.58710E-02
-6.53940E-02
-6.51380E-02
-6.31200E-02
-5.69210E-02
-6.60190E-02
-7.25840E-02
-5.35260E-02
-5.66140E-02
-2.58565E-01
-2.49283E-01
-2.22772E-01
-2.48916E-01
-2.55027E-01
-2.31573E-01
-2.35674E-01
-2.38981E-01
-2.45869E-01
-2.35898E-01
-2.45913E-01
-2.34774E-01
-2.42029E-01
-2.76668E-01
-2.74181E-01
-2.49316E-01
-2.30956E-01
-2.27885E-01
-2.45767E-01
-1.80374E-01
-2.15826E-01
-2.61710E-01
-1.81366E-01
-1.25458E-01
-1.23380E-01
-1.62771E-01
-1.87378E-01
-1.62006E-01
-1.11614E-01
-1.04847E-01
-1.09469E-01
-9.75540E-02
-8.57910E-02
-1.34432E-01
-1.38443E-01
-1.40789E-01
-1.12670E-01
-1.13456E-01
-6.13100E-02
-5.98190E-02
-1.14190E-01
-9.19760E-02
-8.31760E-02
-8.78260E-02
-1.01601E-01
-7.30800E-02
-5.96620E-02
-9.58600E-02
-3.39500E-02
-1.35980E-02
-6.54790E-02
-7.47600E-02
-6.74250E-02
-6.07890E-02
-2.50487E-01
-2.28255E-01
-2.42319E-01
-2.64188E-01
-2.14328E-01
-2.01762E-01
-1.98925E-01
-2.26343E-01
-2.54781E-01
-2.48015E-01
-2.71467E-01
-2.35314E-01
-1.95137E-01
-2.27879E-01
-2.40887E-01
-2.25470E-01
-2.05372E-01
-1.78220E-01
-1.74895E-01
-2.13200E-01
-2.08861E-01
-1.70485E-01
-1.66591E-01
-1.25806E-01
-1.69017E-01
-1.31306E-01
-1.21508E-01
-2.02923E-01
-2.11630E-01
-1.56180E-01
-1.31671E-01
-1.31234E-01
-1.43490E-01
-1.60041E-01
-1.16004E-01
-1.03330E-01
-1.00911E-01
-1.10381E-01
-8.55320E-02
-6.80600E-02
-1.00311E-01
-1.04314E-01
-1.30220E-01
-9.39890E-02
-6.94860E-02
-7.96000E-02
-6.90020E-02
-8.11140E-02
-6.90970E-02
-4.76290E-02
-3.79380E-02
-6.55180E-02
-3.41980E-02
-4.43250E-02
-3.14768E-01
-3.39547E-01
-2.94873E-01
-2.55684E-01
-2.50181E-01
-2.29705E-01
-2.18749E-01
-2.24993E-01
-2.65421E-01
-2.47844E-01
-2.41334E-01
-2.54333E-01
-2.36009E-01
-1.74313E-01
-2.05211E-01
-2.10966E-01
-1.99202E-01
-1.72039E-01
-2.29023E-01
-2.27958E-01
-2.04389E-01
-1.63274E-01
-1.52867E-01
-1.45885E-01
-1.42929E-01
-1.33380E-01
-1.51716E-01
-1.74931E-01
-1.38804E-01
-1.16671E-01
-1.30666E-01
-1.40758E-01
-1.32556E-01
-1.29574E-01
-1.10995E-01
-1.21173E-01
-1.01318E-01
-1.09313E-01
-1.05681E-01
-1.10766E-01
-1.00123E-01
-8.25550E-02
-8.71240E-02
-9.18160E-02
-8.17490E-02
-6.86860E-02
-6.07840E-02
-6.43710E-02
-6.54680E-02
-5.72390E-02
-3.78760E-02
-4.19880E-02
-2.31160E-02
-3.89360E-02
-2.57986E-01
-2.81118E-01
-2.84765E-01
-2.54005E-01
-2.36968E-01
-2.36458E-01
-2.42692E-01
-2.48728E-01
-2.40800E-01
-2.42863E-01
-2.20382E-01
-2.33505E-01
-2.31583E-01
-1.83954E-01
-1.73686E-01
-2.53228E-01
-2.20828E-01
-1.98524E-01
-1.92598E-01
-1.90129E-01
-1.86030E-01
-1.76315E-01
-1.80611E-01
-1.66851E-01
-1.55443E-01
-1.40784E-01
-1.39832E-01
-1.53329E-01
-1.39438E-01
-1.27482E-01
-1.52672E-01
-1.55384E-01
-1.23146E-01
-1.26837E-01
-8.79890E-02
-9.98600E-02
-1.90619E-01
-1.59986E-01
-1.04889E-01
-5.17220E-02
-7.08210E-02
-1.42282E-01
-1.29895E-01
-1.18413E-01
-9.28770E-02
-7.90140E-02
-7.51950E-02
-6.69680E-02
-6.63670E-02
-6.73890E-02
-5.58750E-02
-7.04300E-02
-7.29770E-02
-4.09790E-02
-2.67275E-01
-2.58695E-01
-2.49255E-01
-2.40442E-01
-2.24824E-01
-2.41536E-01
-2.32811E-01
-2.52670E-01
-2.86516E-01
-2.34632E-01
-2.22201E-01
-2.26265E-01
-1.98882E-01
-2.07945E-01
-2.22454E-01
-2.25756E-01
-1.94981E-01
-1.96643E-01
-1.73486E-01
-1.64821E-01
-2.09910E-01
-2.02468E-01
-1.62266E-01
-1.23860E-01
-1.66278E-01
-2.07192E-01
-1.83755E-01
-1.47634E-01
-1.39469E-01
-1.30189E-01
-1.23941E-01
-1.02358E-01
-8.29420E-02
-1.13454E-01
-1.26979E-01
-1.11744E-01
-1.11091E-01
-9.80080E-02
-1.26695E-01
-1.96260E-02
-5.88890E-02
-5.14140E-02
-7.76910E-02
-9.83120E-02
-1.02175E-01
-8.37750E-02
-5.95170E-02
-6.79580E-02
-6.08920E-02
-4.66030E-02
-4.19650E-02
-6.10500E-02
-8.64770E-02
-2.85000E-04
-3.08161E-01
-2.72894E-01
-2.12582E-01
-2.13976E-01
-2.53342E-01
-2.60740E-01
-2.64471E-01
-2.18774E-01
-2.49668E-01
-2.27080E-01
-2.23367E-01
-2.20848E-01
-2.73214E-01
-2.01801E-01
-2.16492E-01
-1.56293E-01
-1.83079E-01
-1.94628E-01
-1.87841E-01
-1.84768E-01
-1.80449E-01
-1.69429E-01
-1.67561E-01
-1.58911E-01
-1.53350E-01
-1.95688E-01
-1.63694E-01
-1.33669E-01
-1.36907E-01
-1.04152E-01
-1.00880E-01
-1.26303E-01
-1.49116E-01
-1.09675E-01
-1.15470E-01
-1.15823E-01
-9.69620E-02
-1.18921E-01
-1.11223E-01
-1.17561E-01
-1.06497E-01
-8.40700E-02
-7.78410E-02
-7.14940E-02
-7.89060E-02
-6.12150E-02
-9.08900E-02
-8.78470E-02
-5.42800E-03
-6.83240E-02
-7.20670E-02
-5.87090E-02
-3.97810E-02
-5.69190E-02
-3.40278E-01
-2.43448E-01
-2.96021E-01
-2.96368E-01
-2.85753E-01
-2.60023E-01
-2.13708E-01
-2.27637E-01
-2.63482E-01
-2.37370E-01
-2.19379E-01
-2.10113E-01
-2.30070E-01
-2.16023E-01
-2.11187E-01
-1.76855E-01
-1.84426E-01
-1.77498E-01
-1.73385E-01
-1.65808E-01
-1.55166E-01
-1.66027E-01
-1.98646E-01
-2.13032E-01
-1.50394E-01
-1.84440E-01
-1.12102E-01
-1.40138E-01
-1.52664E-01
-1.60289E-01
-1.92305E-01
-1.69129E-01
-1.22572E-01
-9.58910E-02
-1.06454E-01
-1.03712E-01
-9.75200E-02
-1.10076E-01
-1.05691E-01
-4.09290E-02
-7.34660E-02
-5.46260E-02
-8.12880E-02
-5.73960E-02
-6.79490E-02
-6.54810E-02
-4.49740E-02
-2.96190E-02
-4.50690E-02
-5.04960E-02
-4.59330E-02
-4.37460E-02
-7.13560E-02
-2.70350E-02
-2.40316E-01
-3.07100E-01
-2.80845E-01
-2.37928E-01
-2.35581E-01
-2.48231E-01
-2.45862E-01
-2.28079E-01
-2.39443E-01
-2.42004E-01
-2.40792E-01
-2.14796E-01
-2.10423E-01
-2.31652E-01
-2.06034E-01
-1.35406E-01
-2.33962E-01
-2.44811E-01
-1.51552E-01
-1.29010E-01
-2.19798E-01
-2.14308E-01
-1.59867E-01
-1.65254E-01
-1.65773E-01
-1.05446E-01
-1.08587E-01
-1.28096E-01
-1.35082E-01
-1.09694E-01
-9.51480E-02
-1.16757E-01
-1.44289E-01
-1.38815E-01
-1.11383E-01
-1.21712E-01
-1.02952E-01
-9.54950E-02
-1.01709E-01
-9.39700E-02
-7.90260E-02
-8.90860E-02
-9.41380E-02
-8.05720E-02
-8.35920E-02
-9.51870E-02
-6.84900E-02
-8.97370E-02
-9.68880E-02
-6.69690E-02
-6.33640E-02
-5.06060E-02
-4.77120E-02
 1.55750E-02
-2.50416E-01
-2.26278E-01
-2.33611E-01
-2.25015E-01
-2.35335E-01
-2.35772E-01
-2.29343E-01
-2.08338E-01
-1.79857E-01
-2.01398E-01
-1.88249E-01
-1.87376E-01
-2.20319E-01
-2.86581E-01
-2.49301E-01
-1.93108E-01
-1.90635E-01
-2.23443E-01
-1.76518E-01
-8.00720E-02
-2.29679E-01
-1.27792E-01
-1.59016E-01
-1.79349E-01
-1.54451E-01
-2.29070E-01
-2.01742E-01
-1.81691E-01
-1.75862E-01
-1.50256E-01
-1.21450E-01
-9.62610E-02
-9.92540E-02
-1.03373E-01
-1.37146E-01
-1.56751E-01
-1.12254E-01
-9.64500E-02
-1.11446E-01
-7.41850E-02
-5.96390E-02
-5.67420E-02
-3.77860E-02
-5.93090E-02
-8.01900E-02
-8.95550E-02
-9.85070E-02
-7.41430E-02
-3.19720E-02
-6.37550E-02
-5.55350E-02
-3.05650E-02
-3.49050E-02
-3.30870E-02
-2.10673E-01
-2.37432E-01
-2.91878E-01
-2.27995E-01
-1.66310E-01
-1.98733E-01
-2.10660E-01
-1.95903E-01
-2.45642E-01
-2.26624E-01
-2.21238E-01
-2.94420E-01
-2.96777E-01
-2.07064E-01
-2.11180E-01
-2.18329E-01
-2.41786E-01
-1.89234E-01
-1.66594E-01
-2.24192E-01
-1.43114E-01
-1.46869E-01
-1.62574E-01
-1.73511E-01
-1.36171E-01
-1.43715E-01
-1.50529E-01
-1.56204E-01
-1.57025E-01
-1.44279E-01
-1.23318E-01
-1.13282E-01
-1.10074E-01
-1.07536E-01
-1.08297E-01
-1.19742E-01
-1.10817E-01
-1.09565E-01
-9.13630E-02
-7.33700E-02
-9.48870E-02
-1.05476E-01
-9.16870E-02
-7.43560E-02
-1.29550E-02
-4.69400E-03
-5.78570E-02
-3.82940E-02
-5.08700E-02
-3.50950E-02
-3.10520E-02
-7.85920E-02
-9.05350E-02
-1.53300E-03
-1.13979E-01
-2.22097E-01
-2.45564E-01
-2.74407E-01
-2.86183E-01
-2.55341E-01
-2.59802E-01
-2.81314E-01
-2.45752E-01
-2.42803E-01
-2.47318E-01
-2.70447E-01
-2.07374E-01
-2.06858E-01
-2.58312E-01
-1.98012E-01
-1.40259E-01
-1.60212E-01
-2.02461E-01
-1.69969E-01
-1.47798E-01
-1.43821E-01
-1.40164E-01
-1.47418E-01
-1.22305E-01
-1.44644E-01
-1.82230E-01
-1.43683E-01
-1.33932E-01
-1.29792E-01
-1.31583E-01
-1.33184E-01
-1.20754E-01
-1.25749E-01
-7.74320E-02
-1.11355E-01
-1.17300E-01
-1.14163E-01
-1.11935E-01
-1.06582E-01
-8.34110E-02
-7.21630E-02
-8.72480E-02
-7.23310E-02
-9.18940E-02
-7.49340E-02
-6.82330E-02
-6.12160E-02
-4.31790E-02
-4.41590E-02
-3.90420E-02
-3.59580E-02
-3.69730E-02
-4.52120E-02
-2.71562E-01
-2.87298E-01
-2.52903E-01
-1.91777E-01
-2.15773E-01
-2.10564E-01
-2.09516E-01
-2.13399E-01
-2.60974E-01
-2.09282E-01
-1.24254E-01
-1.91196E-01
-2.15347E-01
-2.20527E-01
-2.29704E-01
-1.87733E-01
-1.79714E-01
-1.81406E-01
-1.74386E-01
-1.48127E-01
-1.64086E-01
-1.93246E-01
-1.39714E-01
-1.49087E-01
-1.93507E-01
-1.59321E-01
-1.05373E-01
-1.00363E-01
-1.48804E-01
-1.30987E-01
-1.23550E-01
-7.62020E-02
-1.09476E-01
-1.11978E-01
-1.17940E-01
-1.26720E-01
-1.43436E-01
-9.86800E-02
-9.85470E-02
-8.95120E-02
-7.34720E-02
-7.85640E-02
-8.66250E-02
-7.88590E-02
-6.54860E-02
-4.62130E-02
-5.27700E-02
-8.02830E-02
-5.97210E-02
-2.09750E-02
-6.64850E-02
-6.93290E-02
-2.49770E-02
-6.20050E-02
-3.06596E-01
-2.80498E-01
-2.51351E-01
-2.02224E-01
-2.36354E-01
-2.74201E-01
-2.40152E-01
-2.18423E-01
-2.28151E-01
-2.26583E-01
-2.21757E-01
-2.35586E-01
-2.17513E-01
-1.97041E-01
-1.95329E-01
-1.81663E-01
-1.55571E-01
-1.50304E-01
-1.78302E-01
-1.92543E-01
-1.62702E-01
-1.43763E-01
-1.44147E-01
-1.91364E-01
-1.45593E-01
-1.16349E-01
-1.19041E-01
-1.29798E-01
-1.42429E-01
-1.23522E-01
-1.50283E-01
-1.31399E-01
-1.11366E-01
-1.20033E-01
-1.42288E-01
-9.49650E-02
-7.28400E-02
-6.80290E-02
-1.07951E-01
-7.94870E-02
-3.40340E-02
-8.45080E-02
-8.61490E-02
-7.14640E-02
-5.40150E-02
-6.06470E-02
-9.72200E-03
 5.37300E-03
-5.67290E-02
-6.54790E-02
-4.83270E-02
-6.80200E-03
 1.90300E-03
-9.99930E-02
-3.04605E-01
-2.74203E-01
-2.49219E-01
-2.45113E-01
-2.28014E-01
-2.43344E-01
-2.31974E-01
-1.95597E-01
-2.09619E-01
-1.92696E-01
-2.23640E-01
-1.19637E-01
-1.47161E-01
-2.25670E-01
-1.97492E-01
-1.74521E-01
-1.78367E-01
-1.58897E-01
-1.37877E-01