# vtk DataFile Version 2.0
OUTPUT FROM BUFEM
ASCII
DATASET UNSTRUCTURED_GRID
POINTS         3339 FLOAT
 1.217391E+00 -6.180602E+00  0.000000E+00
 1.704348E+00 -6.180602E+00  0.000000E+00
 2.191304E+00 -6.180602E+00  0.000000E+00
 2.678261E+00 -6.180602E+00  0.000000E+00
 3.165217E+00 -6.180602E+00  0.000000E+00
 3.652174E+00 -6.180602E+00  0.000000E+00
 4.139130E+00 -6.180602E+00  0.000000E+00
 4.626087E+00 -6.180602E+00  0.000000E+00
 5.113043E+00 -6.180602E+00  0.000000E+00
 5.600000E+00 -6.180602E+00  0.000000E+00
 6.086957E+00 -6.180602E+00  0.000000E+00
 6.573913E+00 -6.180602E+00  0.000000E+00
 7.060870E+00 -6.180602E+00  0.000000E+00
 7.547826E+00 -6.180602E+00  0.000000E+00
 8.034783E+00 -6.180602E+00  0.000000E+00
 8.521739E+00 -6.180602E+00  0.000000E+00
 9.008696E+00 -6.180602E+00  0.000000E+00
 9.495652E+00 -6.180602E+00  0.000000E+00
 9.982609E+00 -6.180602E+00  0.000000E+00
 1.046957E+01 -6.180602E+00  0.000000E+00
 1.095652E+01 -6.180602E+00  0.000000E+00
 1.144348E+01 -6.180602E+00  0.000000E+00
 1.193043E+01 -6.180602E+00  0.000000E+00
 1.241739E+01 -6.180602E+00  0.000000E+00
 1.290435E+01 -6.180602E+00  0.000000E+00
 1.339130E+01 -6.180602E+00  0.000000E+00
 1.387826E+01 -6.180602E+00  0.000000E+00
 1.436522E+01 -6.180602E+00  0.000000E+00
 1.485217E+01 -6.180602E+00  0.000000E+00
 1.533913E+01 -6.180602E+00  0.000000E+00
 1.582609E+01 -6.180602E+00  0.000000E+00
 1.631304E+01 -6.180602E+00  0.000000E+00
 1.680000E+01 -6.180602E+00  0.000000E+00
 1.728696E+01 -6.180602E+00  0.000000E+00
 1.777391E+01 -6.180602E+00  0.000000E+00
 1.826087E+01 -6.180602E+00  0.000000E+00
 1.874783E+01 -6.180602E+00  0.000000E+00
 1.923478E+01 -6.180602E+00  0.000000E+00
 1.972174E+01 -6.180602E+00  0.000000E+00
 2.020870E+01 -6.180602E+00  0.000000E+00
 2.069565E+01 -6.180602E+00  0.000000E+00
 2.118261E+01 -6.180602E+00  0.000000E+00
 2.166957E+01 -6.180602E+00  0.000000E+00
 2.215652E+01 -6.180602E+00  0.000000E+00
 2.264348E+01 -6.180602E+00  0.000000E+00
 2.313043E+01 -6.180602E+00  0.000000E+00
 2.361739E+01 -6.180602E+00  0.000000E+00
 2.410435E+01 -6.180602E+00  0.000000E+00
 2.459130E+01 -6.180602E+00  0.000000E+00
 2.507826E+01 -6.180602E+00  0.000000E+00
 2.556522E+01 -6.180602E+00  0.000000E+00
 2.605217E+01 -6.180602E+00  0.000000E+00
 2.653913E+01 -6.180602E+00  0.000000E+00
 1.217391E+00 -6.798662E+00  0.000000E+00
 1.704348E+00 -6.798662E+00  0.000000E+00
 2.191304E+00 -6.798662E+00  0.000000E+00
 2.678261E+00 -6.798662E+00  0.000000E+00
 3.165217E+00 -6.798662E+00  0.000000E+00
 3.652174E+00 -6.798662E+00  0.000000E+00
 4.139130E+00 -6.798662E+00  0.000000E+00
 4.626087E+00 -6.798662E+00  0.000000E+00
 5.113043E+00 -6.798662E+00  0.000000E+00
 5.600000E+00 -6.798662E+00  0.000000E+00
 6.086957E+00 -6.798662E+00  0.000000E+00
 6.573913E+00 -6.798662E+00  0.000000E+00
 7.060870E+00 -6.798662E+00  0.000000E+00
 7.547826E+00 -6.798662E+00  0.000000E+00
 8.034783E+00 -6.798662E+00  0.000000E+00
 8.521739E+00 -6.798662E+00  0.000000E+00
 9.008696E+00 -6.798662E+00  0.000000E+00
 9.495652E+00 -6.798662E+00  0.000000E+00
 9.982609E+00 -6.798662E+00  0.000000E+00
 1.046957E+01 -6.798662E+00  0.000000E+00
 1.095652E+01 -6.798662E+00  0.000000E+00
 1.144348E+01 -6.798662E+00  0.000000E+00
 1.193043E+01 -6.798662E+00  0.000000E+00
 1.241739E+01 -6.798662E+00  0.000000E+00
 1.290435E+01 -6.798662E+00  0.000000E+00
 1.339130E+01 -6.798662E+00  0.000000E+00
 1.387826E+01 -6.798662E+00  0.000000E+00
 1.436522E+01 -6.798662E+00  0.000000E+00
 1.485217E+01 -6.798662E+00  0.000000E+00
 1.533913E+01 -6.798662E+00  0.000000E+00
 1.582609E+01 -6.798662E+00  0.000000E+00
 1.631304E+01 -6.798662E+00  0.000000E+00
 1.680000E+01 -6.798662E+00  0.000000E+00
 1.728696E+01 -6.798662E+00  0.000000E+00
 1.777391E+01 -6.798662E+00  0.000000E+00
 1.826087E+01 -6.798662E+00  0.000000E+00
 1.874783E+01 -6.798662E+00  0.000000E+00
 1.923478E+01 -6.798662E+00  0.000000E+00
 1.972174E+01 -6.798662E+00  0.000000E+00
 2.020870E+01 -6.798662E+00  0.000000E+00
 2.069565E+01 -6.798662E+00  0.000000E+00
 2.118261E+01 -6.798662E+00  0.000000E+00
 2.166957E+01 -6.798662E+00  0.000000E+00
 2.215652E+01 -6.798662E+00  0.000000E+00
 2.264348E+01 -6.798662E+00  0.000000E+00
 2.313043E+01 -6.798662E+00  0.000000E+00
 2.361739E+01 -6.798662E+00  0.000000E+00
 2.410435E+01 -6.798662E+00  0.000000E+00
 2.459130E+01 -6.798662E+00  0.000000E+00
 2.507826E+01 -6.798662E+00  0.000000E+00
 2.556522E+01 -6.798662E+00  0.000000E+00
 2.605217E+01 -6.798662E+00  0.000000E+00
 2.653913E+01 -6.798662E+00  0.000000E+00
 1.217391E+00 -7.416722E+00  0.000000E+00
 1.704348E+00 -7.416722E+00  0.000000E+00
 2.191304E+00 -7.416722E+00  0.000000E+00
 2.678261E+00 -7.416722E+00  0.000000E+00
 3.165217E+00 -7.416722E+00  0.000000E+00
 3.652174E+00 -7.416722E+00  0.000000E+00
 4.139130E+00 -7.416722E+00  0.000000E+00
 4.626087E+00 -7.416722E+00  0.000000E+00
 5.113043E+00 -7.416722E+00  0.000000E+00
 5.600000E+00 -7.416722E+00  0.000000E+00
 6.086957E+00 -7.416722E+00  0.000000E+00
 6.573913E+00 -7.416722E+00  0.000000E+00
 7.060870E+00 -7.416722E+00  0.000000E+00
 7.547826E+00 -7.416722E+00  0.000000E+00
 8.034783E+00 -7.416722E+00  0.000000E+00
 8.521739E+00 -7.416722E+00  0.000000E+00
 9.008696E+00 -7.416722E+00  0.000000E+00
 9.495652E+00 -7.416722E+00  0.000000E+00
 9.982609E+00 -7.416722E+00  0.000000E+00
 1.046957E+01 -7.416722E+00  0.000000E+00
 1.095652E+01 -7.416722E+00  0.000000E+00
 1.144348E+01 -7.416722E+00  0.000000E+00
 1.193043E+01 -7.416722E+00  0.000000E+00
 1.241739E+01 -7.416722E+00  0.000000E+00
 1.290435E+01 -7.416722E+00  0.000000E+00
 1.339130E+01 -7.416722E+00  0.000000E+00
 1.387826E+01 -7.416722E+00  0.000000E+00
 1.436522E+01 -7.416722E+00  0.000000E+00
 1.485217E+01 -7.416722E+00  0.000000E+00
 1.533913E+01 -7.416722E+00  0.000000E+00
 1.582609E+01 -7.416722E+00  0.000000E+00
 1.631304E+01 -7.416722E+00  0.000000E+00
 1.680000E+01 -7.416722E+00  0.000000E+00
 1.728696E+01 -7.416722E+00  0.000000E+00
 1.777391E+01 -7.416722E+00  0.000000E+00
 1.826087E+01 -7.416722E+00  0.000000E+00
 1.874783E+01 -7.416722E+00  0.000000E+00
 1.923478E+01 -7.416722E+00  0.000000E+00
 1.972174E+01 -7.416722E+00  0.000000E+00
 2.020870E+01 -7.416722E+00  0.000000E+00
 2.069565E+01 -7.416722E+00  0.000000E+00
 2.118261E+01 -7.416722E+00  0.000000E+00
 2.166957E+01 -7.416722E+00  0.000000E+00
 2.215652E+01 -7.416722E+00  0.000000E+00
 2.264348E+01 -7.416722E+00  0.000000E+00
 2.313043E+01 -7.416722E+00  0.000000E+00
 2.361739E+01 -7.416722E+00  0.000000E+00
 2.410435E+01 -7.416722E+00  0.000000E+00
 2.459130E+01 -7.416722E+00  0.000000E+00
 2.507826E+01 -7.416722E+00  0.000000E+00
 2.556522E+01 -7.416722E+00  0.000000E+00
 2.605217E+01 -7.416722E+00  0.000000E+00
 2.653913E+01 -7.416722E+00  0.000000E+00
 1.217391E+00 -8.034783E+00  0.000000E+00
 1.704348E+00 -8.034783E+00  0.000000E+00
 2.191304E+00 -8.034783E+00  0.000000E+00
 2.678261E+00 -8.034783E+00  0.000000E+00
 3.165217E+00 -8.034783E+00  0.000000E+00
 3.652174E+00 -8.034783E+00  0.000000E+00
 4.139130E+00 -8.034783E+00  0.000000E+00
 4.626087E+00 -8.034783E+00  0.000000E+00
 5.113043E+00 -8.034783E+00  0.000000E+00
 5.600000E+00 -8.034783E+00  0.000000E+00
 6.086957E+00 -8.034783E+00  0.000000E+00
 6.573913E+00 -8.034783E+00  0.000000E+00
 7.060870E+00 -8.034783E+00  0.000000E+00
 7.547826E+00 -8.034783E+00  0.000000E+00
 8.034783E+00 -8.034783E+00  0.000000E+00
 8.521739E+00 -8.034783E+00  0.000000E+00
 9.008696E+00 -8.034783E+00  0.000000E+00
 9.495652E+00 -8.034783E+00  0.000000E+00
 9.982609E+00 -8.034783E+00  0.000000E+00
 1.046957E+01 -8.034783E+00  0.000000E+00
 1.095652E+01 -8.034783E+00  0.000000E+00
 1.144348E+01 -8.034783E+00  0.000000E+00
 1.193043E+01 -8.034783E+00  0.000000E+00
 1.241739E+01 -8.034783E+00  0.000000E+00
 1.290435E+01 -8.034783E+00  0.000000E+00
 1.339130E+01 -8.034783E+00  0.000000E+00
 1.387826E+01 -8.034783E+00  0.000000E+00
 1.436522E+01 -8.034783E+00  0.000000E+00
 1.485217E+01 -8.034783E+00  0.000000E+00
 1.533913E+01 -8.034783E+00  0.000000E+00
 1.582609E+01 -8.034783E+00  0.000000E+00
 1.631304E+01 -8.034783E+00  0.000000E+00
 1.680000E+01 -8.034783E+00  0.000000E+00
 1.728696E+01 -8.034783E+00  0.000000E+00
 1.777391E+01 -8.034783E+00  0.000000E+00
 1.826087E+01 -8.034783E+00  0.000000E+00
 1.874783E+01 -8.034783E+00  0.000000E+00
 1.923478E+01 -8.034783E+00  0.000000E+00
 1.972174E+01 -8.034783E+00  0.000000E+00
 2.020870E+01 -8.034783E+00  0.000000E+00
 2.069565E+01 -8.034783E+00  0.000000E+00
 2.118261E+01 -8.034783E+00  0.000000E+00
 2.166957E+01 -8.034783E+00  0.000000E+00
 2.215652E+01 -8.034783E+00  0.000000E+00
 2.264348E+01 -8.034783E+00  0.000000E+00
 2.313043E+01 -8.034783E+00  0.000000E+00
 2.361739E+01 -8.034783E+00  0.000000E+00
 2.410435E+01 -8.034783E+00  0.000000E+00
 2.459130E+01 -8.034783E+00  0.000000E+00
 2.507826E+01 -8.034783E+00  0.000000E+00
 2.556522E+01 -8.034783E+00  0.000000E+00
 2.605217E+01 -8.034783E+00  0.000000E+00
 2.653913E+01 -8.034783E+00  0.000000E+00
 1.217391E+00 -8.652843E+00  0.000000E+00
 1.704348E+00 -8.652843E+00  0.000000E+00
 2.191304E+00 -8.652843E+00  0.000000E+00
 2.678261E+00 -8.652843E+00  0.000000E+00
 3.165217E+00 -8.652843E+00  0.000000E+00
 3.652174E+00 -8.652843E+00  0.000000E+00
 4.139130E+00 -8.652843E+00  0.000000E+00
 4.626087E+00 -8.652843E+00  0.000000E+00
 5.113043E+00 -8.652843E+00  0.000000E+00
 5.600000E+00 -8.652843E+00  0.000000E+00
 6.086957E+00 -8.652843E+00  0.000000E+00
 6.573913E+00 -8.652843E+00  0.000000E+00
 7.060870E+00 -8.652843E+00  0.000000E+00
 7.547826E+00 -8.652843E+00  0.000000E+00
 8.034783E+00 -8.652843E+00  0.000000E+00
 8.521739E+00 -8.652843E+00  0.000000E+00
 9.008696E+00 -8.652843E+00  0.000000E+00
 9.495652E+00 -8.652843E+00  0.000000E+00
 9.982609E+00 -8.652843E+00  0.000000E+00
 1.046957E+01 -8.652843E+00  0.000000E+00
 1.095652E+01 -8.652843E+00  0.000000E+00
 1.144348E+01 -8.652843E+00  0.000000E+00
 1.193043E+01 -8.652843E+00  0.000000E+00
[...]
POINT_DATA         3339
 SCALARS measuredDisp11 float  1                   
LOOKUP_TABLE default
-1.64626E-01
-1.65297E-01
-1.59504E-01
-1.51205E-01
-1.49337E-01
-1.52641E-01
-1.53063E-01
-1.52944E-01
-1.54739E-01
-1.55846E-01
-1.53601E-01
-1.50073E-01
-1.48346E-01
-1.40826E-01
-1.34081E-01
-1.24831E-01
-1.21703E-01
-1.19105E-01
-1.26785E-01
-1.38396E-01
-1.40002E-01
-1.29334E-01
-1.17884E-01
-1.15335E-01
-1.13231E-01
-1.08431E-01
-1.01163E-01
-1.00005E-01
-1.02334E-01
-1.04228E-01
-1.03460E-01
-1.04762E-01
-1.03036E-01
-1.01260E-01
-1.00267E-01
-9.89280E-02
-9.81660E-02
-9.72110E-02
-8.95650E-02
-7.87430E-02
-7.42440E-02
-7.83160E-02
-8.48640E-02
-8.43540E-02
-8.15440E-02
-7.66970E-02
-6.72070E-02
-5.15700E-02
-4.24260E-02
-5.48770E-02
-6.49750E-02
-6.69140E-02
-5.87910E-02
-1.65181E-01
-1.65806E-01
-1.60390E-01
-1.51709E-01
-1.51108E-01
-1.53556E-01
-1.52589E-01
-1.50807E-01
-1.54989E-01
-1.60672E-01
-1.60129E-01
-1.50760E-01
-1.44938E-01
-1.40483E-01
-1.38463E-01
-1.29621E-01
-1.26191E-01
-1.23194E-01
-1.26360E-01
-1.31810E-01
-1.33777E-01
-1.28367E-01
-1.23568E-01
-1.19495E-01
-1.15446E-01
-1.14399E-01
-1.11939E-01
-1.11005E-01
-1.13118E-01
-1.13417E-01
-1.07528E-01
-1.06177E-01
-1.05198E-01
-1.02982E-01
-9.87500E-02
-9.92300E-02
-9.94360E-02
-9.53760E-02
-8.43400E-02
-7.33250E-02
-7.09920E-02
-7.63460E-02
-8.31690E-02
-8.04950E-02
-7.34910E-02
-6.53400E-02
-6.13660E-02
-5.71300E-02
-5.49340E-02
-5.90880E-02
-5.86580E-02
-5.33380E-02
-4.55490E-02
-1.71049E-01
-1.67285E-01
-1.62482E-01
-1.55545E-01
-1.55220E-01
-1.54638E-01
-1.50651E-01
-1.46387E-01
-1.51249E-01
-1.57591E-01
-1.57083E-01
-1.47141E-01
-1.42478E-01
-1.41270E-01
-1.43350E-01
-1.38807E-01
-1.31319E-01
-1.24433E-01
-1.21441E-01
-1.23305E-01
-1.25269E-01
-1.26745E-01
-1.29356E-01
-1.28156E-01
-1.25495E-01
-1.20290E-01
-1.12841E-01
-1.10900E-01
-1.22551E-01
-1.33355E-01
-1.24105E-01
-1.13153E-01
-1.09485E-01
-1.08008E-01
-9.80050E-02
-9.44940E-02
-9.63210E-02
-9.52850E-02
-8.68210E-02
-7.71890E-02
-7.55230E-02
-8.06110E-02
-8.39210E-02
-7.78510E-02
-6.86770E-02
-6.39740E-02
-6.72720E-02
-7.22710E-02
-7.20360E-02
-6.50850E-02
-5.75880E-02
-4.81860E-02
-4.25860E-02
-1.75093E-01
-1.66516E-01
-1.61027E-01
-1.57866E-01
-1.58278E-01
-1.55039E-01
-1.48723E-01
-1.45993E-01
-1.49934E-01
-1.53406E-01
-1.49305E-01
-1.42738E-01
-1.40928E-01
-1.46849E-01
-1.54136E-01
-1.55891E-01
-1.43020E-01
-1.26093E-01
-1.11568E-01
-1.10522E-01
-1.19518E-01
-1.29801E-01
-1.31418E-01
-1.26144E-01
-1.24132E-01
-1.16051E-01
-1.03605E-01
-1.01963E-01
-1.23129E-01
-1.38408E-01
-1.26217E-01
-1.06470E-01
-1.00158E-01
-9.86950E-02
-8.93090E-02
-8.55730E-02
-8.79300E-02
-9.01020E-02
-8.99890E-02
-8.69480E-02
-8.60930E-02
-8.36320E-02
-8.46850E-02
-7.92110E-02
-7.37420E-02
-6.98080E-02
-7.56440E-02
-8.12830E-02
-8.01850E-02
-7.10820E-02
-6.09800E-02
-5.05810E-02
-4.47510E-02
-1.74211E-01
-1.66145E-01
-1.60420E-01
-1.58853E-01
-1.56327E-01
-1.49439E-01
-1.43510E-01
-1.45569E-01
-1.51609E-01
-1.54518E-01
-1.52394E-01
-1.51420E-01
-1.48787E-01
-1.53314E-01
-1.61297E-01
-1.67355E-01
-1.52367E-01
-1.25413E-01
-1.01928E-01
-1.01769E-01
-1.14676E-01
-1.27305E-01
-1.22919E-01
-1.17876E-01
-1.15973E-01
-1.11356E-01
-1.02338E-01
-1.02696E-01
-1.19680E-01
-1.29584E-01
-1.19807E-01
-1.01460E-01
-9.68490E-02
-9.85530E-02
-9.40680E-02
-8.84950E-02
-8.70950E-02
-9.08240E-02
-9.70030E-02
-9.47200E-02
-8.91330E-02
-8.60590E-02
-9.13190E-02
-8.78670E-02
-8.07010E-02
-7.42920E-02
-7.63660E-02
-7.74790E-02
-7.50370E-02
-6.79830E-02
-6.17280E-02
-5.68040E-02
-5.23340E-02
-1.70070E-01
-1.64021E-01
-1.58793E-01
-1.59934E-01
-1.55910E-01
-1.48227E-01
-1.46901E-01
-1.53961E-01
-1.57652E-01
-1.60431E-01
-1.60028E-01
-1.59561E-01
-1.55348E-01
-1.58650E-01
-1.67576E-01
-1.70794E-01
-1.56255E-01
-1.26058E-01
-1.05606E-01
-1.07091E-01
-1.17469E-01
-1.22197E-01
-1.16309E-01
-1.17922E-01
-1.18587E-01
-1.10140E-01
-9.72450E-02
-9.58140E-02
-1.08383E-01
-1.17092E-01
-1.13215E-01
-9.87860E-02
-9.60350E-02
-1.00789E-01
-1.02176E-01
-9.80910E-02
-9.53790E-02
-9.57610E-02
-9.72350E-02
-9.20030E-02
-8.50300E-02
-8.13350E-02
-8.87570E-02
-8.80420E-02
-8.11540E-02
-7.28620E-02
-7.23620E-02
-7.16470E-02
-6.92930E-02
-6.35780E-02
-5.83900E-02
-5.41200E-02
-5.16270E-02
-1.59371E-01
-1.54839E-01
-1.56309E-01
-1.65522E-01
-1.63898E-01
-1.56996E-01
-1.58853E-01
-1.70013E-01
-1.73671E-01
-1.75590E-01
-1.71868E-01
-1.66360E-01
-1.57784E-01
-1.53428E-01
-1.50656E-01
-1.50105E-01
-1.44193E-01
-1.29396E-01
-1.24992E-01
-1.31110E-01
-1.34483E-01
-1.22062E-01
-1.07854E-01
-1.11292E-01
-1.17187E-01
-1.16503E-01
-1.09805E-01
-1.08534E-01
-1.12309E-01
-1.14482E-01
-1.12660E-01
-1.02045E-01
-9.91930E-02
-1.04595E-01
-1.07375E-01
-1.04755E-01
-1.01922E-01
-9.72480E-02
-9.12540E-02
-8.48710E-02
-8.23100E-02
-8.32270E-02
-8.61780E-02
-8.26370E-02
-7.52750E-02
-7.13910E-02
-6.97460E-02
-6.88200E-02
-6.72130E-02
-6.20430E-02
-5.51720E-02
-4.76980E-02
-4.70280E-02
-1.49911E-01
-1.48461E-01
-1.53166E-01
-1.64115E-01
-1.61932E-01
-1.61434E-01
-1.64442E-01
-1.76358E-01
-1.68956E-01
-1.64449E-01
-1.57835E-01
-1.59295E-01
-1.62081E-01
-1.58939E-01
-1.48864E-01
-1.36727E-01
-1.27785E-01
-1.24060E-01
-1.34587E-01
-1.46177E-01
-1.45661E-01
-1.26641E-01
-1.08467E-01
-1.03038E-01
-1.08793E-01
-1.11887E-01
-1.13602E-01
-1.15532E-01
-1.14747E-01
-1.10578E-01
-1.07559E-01
-1.03867E-01
-1.00299E-01
-9.96200E-02
-9.80480E-02
-9.65000E-02
-9.28140E-02
-8.68300E-02
-8.28440E-02
-8.34450E-02
-8.50990E-02
-8.39220E-02
-8.15620E-02
-7.71500E-02
-7.24150E-02
-7.07610E-02
-6.84850E-02
-6.48600E-02
-6.11380E-02
-5.88510E-02
-5.49350E-02
-4.71060E-02
-4.79210E-02
-1.48541E-01
-1.48755E-01
-1.57744E-01
-1.64505E-01
-1.56705E-01
-1.51347E-01
-1.52907E-01
-1.62184E-01
-1.56386E-01
-1.49439E-01
-1.45067E-01
-1.54472E-01
-1.63907E-01
-1.61137E-01
-1.46550E-01
-1.37315E-01
-1.29098E-01
-1.29298E-01
-1.40666E-01
-1.51677E-01
-1.50599E-01
-1.32391E-01
-1.15749E-01
-1.06412E-01
-1.08115E-01
-1.12033E-01
-1.17174E-01
-1.17347E-01
-1.12579E-01
-1.06666E-01
-1.04923E-01
-1.05681E-01
-1.01684E-01
-9.47630E-02
-8.80900E-02
-8.62980E-02
-8.42860E-02
-8.17900E-02
-8.20960E-02
-8.60820E-02
-8.68750E-02
-8.25640E-02
-7.76590E-02
-7.53760E-02
-7.51310E-02
-7.31870E-02
-6.85710E-02
-6.20700E-02
-5.61390E-02
-5.37400E-02
-5.35440E-02
-5.38140E-02
-5.81450E-02
-1.63098E-01
-1.64201E-01
-1.69528E-01
-1.69073E-01
-1.53794E-01
-1.44541E-01
-1.42058E-01
-1.48426E-01
-1.43885E-01
-1.36253E-01
-1.33001E-01
-1.44031E-01
-1.59849E-01
-1.61935E-01
-1.53012E-01
-1.44422E-01
-1.37251E-01
-1.34657E-01
-1.38625E-01
-1.42946E-01
-1.41308E-01
-1.33345E-01
-1.27153E-01
-1.21293E-01
-1.18344E-01
-1.16537E-01
-1.15302E-01
-1.09079E-01
-1.01588E-01
-1.00343E-01
-1.04206E-01
-1.09799E-01
-1.08171E-01
-1.00489E-01
-9.01870E-02
-8.55550E-02
-8.31740E-02
-8.45130E-02
-8.54010E-02
-8.72510E-02
-8.39510E-02
-7.58140E-02
-6.91680E-02
-7.08450E-02
-7.47770E-02
-7.43050E-02
-6.93500E-02
-6.02270E-02
-5.24770E-02
-5.03900E-02
-5.29070E-02
-5.92260E-02
-6.58280E-02
-1.73608E-01
-1.75068E-01
-1.78219E-01
-1.73829E-01
-1.59827E-01
-1.50447E-01
-1.49765E-01
-1.52560E-01
-1.52226E-01
-1.46460E-01
-1.41246E-01
-1.44223E-01
-1.49160E-01
-1.48049E-01
-1.43304E-01
-1.42496E-01
-1.42872E-01
-1.41087E-01
-1.38728E-01
-1.37749E-01
-1.41167E-01
-1.39511E-01
-1.36567E-01
-1.28514E-01
-1.24175E-01
-1.20758E-01
-1.18056E-01
-1.09770E-01
-9.83700E-02
-9.63900E-02
-1.02075E-01
-1.08104E-01
-1.05400E-01
-9.65480E-02
-8.56550E-02
-8.44050E-02
-8.91540E-02
-9.27570E-02
-8.92360E-02
-8.51320E-02
-8.15170E-02
-7.41270E-02
-6.77850E-02
-7.07170E-02
-7.42260E-02
-7.36410E-02
-6.66500E-02
-5.88000E-02
-5.43990E-02
-5.20130E-02
-4.87420E-02
-4.79700E-02
-4.92140E-02
-1.73420E-01
-1.74088E-01
-1.73082E-01
-1.67734E-01
-1.59044E-01
-1.56476E-01
-1.57960E-01
-1.57268E-01
-1.55015E-01
-1.51973E-01
-1.46195E-01
-1.41200E-01
-1.36828E-01
-1.35871E-01
-1.35957E-01
-1.40694E-01
-1.43622E-01
-1.43289E-01
-1.38388E-01
-1.35546E-01
-1.35808E-01
-1.35953E-01
-1.33311E-01
-1.27529E-01
-1.21835E-01
-1.17040E-01
-1.14575E-01
-1.10163E-01
-1.00796E-01
-9.56860E-02
-9.76520E-02
-1.03200E-01
-1.04798E-01
-9.96360E-02
-9.07770E-02
-8.95190E-02
-9.51440E-02
-9.68740E-02
-8.74400E-02
-7.75620E-02
-7.73900E-02
-7.61390E-02
-7.20560E-02
-6.91630E-02
-7.02080E-02
-6.73140E-02
-5.53390E-02
-4.67690E-02
-4.76690E-02
-5.15220E-02
-4.79360E-02
-4.26500E-02
-4.34300E-02
-1.67580E-01
-1.66523E-01
-1.61925E-01
-1.54722E-01
-1.46970E-01
-1.48834E-01
-1.55846E-01
-1.58728E-01
-1.57106E-01
-1.56526E-01
-1.51238E-01
-1.42129E-01
-1.35681E-01
-1.35484E-01
-1.35712E-01
-1.38634E-01
-1.40320E-01
-1.39721E-01
-1.35878E-01
-1.33568E-01
-1.31063E-01
-1.30713E-01
-1.31448E-01
-1.30263E-01
-1.25382E-01
-1.18146E-01
-1.16473E-01
-1.15777E-01
-1.07649E-01
-9.35970E-02
-8.64680E-02
-9.04780E-02
-9.58770E-02
-9.96210E-02
-9.48050E-02
-9.00390E-02
-8.87040E-02
-8.97500E-02
-8.38970E-02
-7.46580E-02
-7.49250E-02
-7.50650E-02
-7.19610E-02
-6.50560E-02
-6.33590E-02
-5.85000E-02
-4.97030E-02
-4.61570E-02
-5.33550E-02
-5.60610E-02
-4.79580E-02
-3.98890E-02
-4.56010E-02
-1.64376E-01
-1.60429E-01
-1.54712E-01
-1.48194E-01
-1.39012E-01
-1.40942E-01
-1.49853E-01
-1.58389E-01
-1.60659E-01
-1.62310E-01
-1.53739E-01
-1.39729E-01
-1.33056E-01
-1.34854E-01
-1.34711E-01
-1.36155E-01
-1.38449E-01
-1.39068E-01
-1.32878E-01
-1.24432E-01
-1.17592E-01
-1.25058E-01
-1.34984E-01
-1.37200E-01
-1.28502E-01
-1.18055E-01
-1.13312E-01
-1.12541E-01
-1.08418E-01
-9.62220E-02
-8.90230E-02
-9.10110E-02
-9.28470E-02
-9.58270E-02
-9.37800E-02
-8.86810E-02
-8.22420E-02
-8.26590E-02
-7.67740E-02
-6.75570E-02
-6.50340E-02
-6.68020E-02
-7.03260E-02
-6.84860E-02
-6.46850E-02
-5.34870E-02
-4.56300E-02
-4.67340E-02
-5.51320E-02
-5.77510E-02
-5.55870E-02
-5.22290E-02
-5.87770E-02
-1.63453E-01
-1.55849E-01
-1.49579E-01
-1.45255E-01
-1.39073E-01
-1.39952E-01
-1.48055E-01
-1.58190E-01
-1.60247E-01
-1.60819E-01
-1.54206E-01
-1.45754E-01
-1.43338E-01
-1.43832E-01
-1.39796E-01
-1.36706E-01
-1.38375E-01
-1.40050E-01
-1.31848E-01
-1.22156E-01
-1.19390E-01
-1.28778E-01
-1.33053E-01
-1.26933E-01
-1.19877E-01
-1.16451E-01
-1.11759E-01
-1.07965E-01
-1.02894E-01
-9.54930E-02
-8.89570E-02
-8.90650E-02
-8.81890E-02
-9.39740E-02
-9.24080E-02
-8.95330E-02
-8.44140E-02
-8.21470E-02
-7.46420E-02
-7.03060E-02
-7.09440E-02
-7.34920E-02
-7.43530E-02
-7.16810E-02
-6.32210E-02
-5.24520E-02
-5.13430E-02
-5.73420E-02
-6.14300E-02
-5.88610E-02
-5.86430E-02
-5.72350E-02
-5.68890E-02
-1.60674E-01
-1.51250E-01
-1.48424E-01
-1.47160E-01
-1.44315E-01
-1.41937E-01
-1.45397E-01
-1.51765E-01
-1.55300E-01
-1.56832E-01
-1.50576E-01
-1.44392E-01
-1.44814E-01
-1.47932E-01
-1.44099E-01
-1.38776E-01
-1.37846E-01
-1.39019E-01
-1.31636E-01
-1.24656E-01
-1.22460E-01
-1.27162E-01
-1.22986E-01
-1.13602E-01
-1.08078E-01
-1.06675E-01
-1.05001E-01
-1.06770E-01
-1.07243E-01
-1.04833E-01
-1.01679E-01
-9.87060E-02
-9.48920E-02
-9.45050E-02
-9.13720E-02
-8.85880E-02
-8.75360E-02
-8.03610E-02
-6.94850E-02
-6.76090E-02
-7.48510E-02
-8.08800E-02
-7.78780E-02
-7.07580E-02
-6.21280E-02
-5.65420E-02
-5.35700E-02
-5.36420E-02
-5.05760E-02
-4.93990E-02
-5.44310E-02
-5.72860E-02
-5.26570E-02
-1.58329E-01
-1.51562E-01
-1.51436E-01
-1.49873E-01
-1.46696E-01
-1.42375E-01
-1.44974E-01
-1.50301E-01
-1.53402E-01
-1.53180E-01
-1.51326E-01
-1.47543E-01
-1.44608E-01
-1.45047E-01
-1.44677E-01
-1.41518E-01
-1.36392E-01
-1.37546E-01
-1.35051E-01
-1.33111E-01
-1.28001E-01
-1.20482E-01
-1.10539E-01
-1.03513E-01
-1.01668E-01
-1.03301E-01
-1.08829E-01
-1.14455E-01
-1.10044E-01
-1.00664E-01
-9.62550E-02
-9.62830E-02
-9.64940E-02
-9.66810E-02
-9.16700E-02
-8.51530E-02
-8.27430E-02
-7.40390E-02
-6.88390E-02
-7.10390E-02
-7.86240E-02
-7.96940E-02
-7.33000E-02
-6.48450E-02
-5.79880E-02
-5.66170E-02
-5.69830E-02
-5.57290E-02
-5.02870E-02
-4.67770E-02
-4.93870E-02
-5.19260E-02
-4.73330E-02
-1.62927E-01
-1.61079E-01
-1.61561E-01
-1.55843E-01
-1.47879E-01
-1.43187E-01
-1.45232E-01
-1.51100E-01
-1.55113E-01
-1.54258E-01
-1.52083E-01
-1.45478E-01
-1.36500E-01
-1.31432E-01
-1.36237E-01
-1.40539E-01
-1.38785E-01
-1.36207E-01
-1.32098E-01
-1.28074E-01
-1.20219E-01
-1.12325E-01
-1.09218E-01
-1.09434E-01
-1.06936E-01
-1.03784E-01
-1.09301E-01
-1.15727E-01
-1.10899E-01
-9.84880E-02
-9.55070E-02
-9.73660E-02
-9.81530E-02
-9.31970E-02
-8.79630E-02
-8.54020E-02
-8.45390E-02
-7.68750E-02
-6.87500E-02
-6.83440E-02
-7.46220E-02
-7.85100E-02
-7.53550E-02
-6.86750E-02
-6.12790E-02
-5.60050E-02
-5.41700E-02
-5.23220E-02
-5.01560E-02
-4.84050E-02
-5.06170E-02
-4.95640E-02
-4.49590E-02
-1.66786E-01
-1.66235E-01
-1.65434E-01
-1.58585E-01
-1.51232E-01
-1.48009E-01
-1.48817E-01
-1.53055E-01
-1.55464E-01
-1.52180E-01
-1.49656E-01
-1.42930E-01
-1.32804E-01
-1.27405E-01
-1.32749E-01
-1.34136E-01
-1.28229E-01
-1.28476E-01
-1.31507E-01
-1.30191E-01
-1.21355E-01
-1.11588E-01
-1.08354E-01
-1.09076E-01
-1.08542E-01
-1.05560E-01
-1.04928E-01
-1.04953E-01
-1.00087E-01
-9.40570E-02
-8.97060E-02
-8.70250E-02
-8.95140E-02
-9.11550E-02
-9.12270E-02
-8.98940E-02
-8.74110E-02
-7.81440E-02
-6.15690E-02
-5.96080E-02
-6.65360E-02
-7.31780E-02
-7.06460E-02
-6.65170E-02
-6.12570E-02
-5.57900E-02
-5.44310E-02
-5.23540E-02
-5.05590E-02
-4.80710E-02
-4.98070E-02
-4.81780E-02
-4.44340E-02
-1.65643E-01
-1.60032E-01
-1.55348E-01
-1.53831E-01
-1.53603E-01
-1.54569E-01
-1.47252E-01
-1.45926E-01
-1.46271E-01
-1.48117E-01
-1.42817E-01
-1.38720E-01
-1.33380E-01
-1.29134E-01
-1.29827E-01
-1.25554E-01
-1.17802E-01
-1.16309E-01
-1.22451E-01
-1.25694E-01
-1.23160E-01
-1.18007E-01
-1.12376E-01
-1.09985E-01
-1.11163E-01
-1.08293E-01
-1.02249E-01
-9.93060E-02
-9.56700E-02
-8.99760E-02
-8.17030E-02
-7.81520E-02
-8.26530E-02
-8.65270E-02
-8.72420E-02
-8.66250E-02
-8.73070E-02
-8.33430E-02
-6.74000E-02
-6.33300E-02
-6.81820E-02
-7.23150E-02
-6.84890E-02
-6.39530E-02
-6.01340E-02
-5.70590E-02
-5.79700E-02
-5.58120E-02
-5.21790E-02
-4.73570E-02
-4.86840E-02
-4.82750E-02
-4.51840E-02
-1.66457E-01
-1.60306E-01
-1.55678E-01
-1.58577E-01
-1.59900E-01
-1.56785E-01
-1.45334E-01
-1.42277E-01
-1.43737E-01
-1.45177E-01
-1.38612E-01
-1.37318E-01
-1.36076E-01
-1.31410E-01
-1.24808E-01
-1.18607E-01
-1.12843E-01
-1.12555E-01
-1.16723E-01
-1.20091E-01
-1.21791E-01
-1.23263E-01
-1.20786E-01
-1.14253E-01
-1.13889E-01
-1.09527E-01
-1.03694E-01
-9.81220E-02
-9.69530E-02
-9.40480E-02
-8.68020E-02
-8.23770E-02
-8.21630E-02
-8.29870E-02
-8.19700E-02
-7.85860E-02
-7.94570E-02
-8.22350E-02
-7.35710E-02
-6.62840E-02
-6.55840E-02
-6.51130E-02
-6.03280E-02
-5.59580E-02
-5.52220E-02
-5.32420E-02
-5.07190E-02
-4.78810E-02
-4.73790E-02
-4.46080E-02
-4.38290E-02
-4.47310E-02
-4.37740E-02
-1.67060E-01
-1.65433E-01
-1.61283E-01
-1.62396E-01
-1.62954E-01
-1.59240E-01
-1.47440E-01
-1.43791E-01
-1.45521E-01
-1.47001E-01
-1.41104E-01
-1.41553E-01
-1.43023E-01
-1.35559E-01
-1.21607E-01
-1.21987E-01
-1.27468E-01
-1.23795E-01
-1.11602E-01
-1.10917E-01
-1.19299E-01
-1.24887E-01
-1.22856E-01
-1.15442E-01
-1.14941E-01
-1.09543E-01
-1.04780E-01
-9.94380E-02
-9.70760E-02
-9.04010E-02
-8.67350E-02
-8.92390E-02
-8.73420E-02
-8.25310E-02
-7.87000E-02
-7.75140E-02
-7.79420E-02
-8.05870E-02
-7.93620E-02
-7.33500E-02
-6.94640E-02
-6.54550E-02
-6.16010E-02
-5.79440E-02
-5.64100E-02
-5.14510E-02
-4.79160E-02
-4.58020E-02
-4.76270E-02
-4.74850E-02
-4.55440E-02
-4.35770E-02
-3.53560E-02
-1.61350E-01
-1.63179E-01
-1.62278E-01
-1.62347E-01
-1.59987E-01
-1.53801E-01
-1.45932E-01
-1.42660E-01
-1.45472E-01
-1.44136E-01
-1.39627E-01
-1.38797E-01
-1.45650E-01
-1.42954E-01
-1.27480E-01
-1.25362E-01
-1.36389E-01
-1.32918E-01
-1.13121E-01
-1.09934E-01
-1.18468E-01
-1.19288E-01
-1.13613E-01
-1.10688E-01
-1.16522E-01
-1.12603E-01
-1.08649E-01
-1.02237E-01
-1.01913E-01
-9.66240E-02
-9.13020E-02
-8.83150E-02
-8.36180E-02
-8.20630E-02
-8.20310E-02
-8.15650E-02
-7.75400E-02
-7.70560E-02
-7.62690E-02
-7.14030E-02
-6.47500E-02
-6.04990E-02
-5.83490E-02
-5.73880E-02
-5.76900E-02
-5.50740E-02
-5.04160E-02
-4.66190E-02
-4.73090E-02
-4.92610E-02
-5.07780E-02
-4.86550E-02
-3.30380E-02
-1.51893E-01
-1.55132E-01
-1.54756E-01
-1.50552E-01
-1.47229E-01
-1.45678E-01
-1.40977E-01
-1.36801E-01
-1.39675E-01
-1.41948E-01
-1.43235E-01
-1.44676E-01
-1.52269E-01
-1.47607E-01
-1.32788E-01
-1.30043E-01
-1.39440E-01
-1.35123E-01
-1.16962E-01
-1.12375E-01
-1.13290E-01
-1.06458E-01
-9.95470E-02
-1.02921E-01
-1.11850E-01
-1.14941E-01
-1.13329E-01
-1.05858E-01
-1.00083E-01
-9.21690E-02
-8.51980E-02
-8.26840E-02
-8.13600E-02
-8.28330E-02
-8.34330E-02
-8.22400E-02
-7.76570E-02
-7.34450E-02
-7.12110E-02
-6.90100E-02
-6.63040E-02
-6.39360E-02
-6.14150E-02
-5.82780E-02
-5.58460E-02
-5.30580E-02
-4.98760E-02
-4.64240E-02
-4.65810E-02
-4.82100E-02
-5.09070E-02
-4.98080E-02
-3.04220E-02
-1.30090E-01
-1.39768E-01
-1.51431E-01
-1.56570E-01
-1.53508E-01
-1.53015E-01
-1.49300E-01
-1.47973E-01
-1.46292E-01
-1.42134E-01
-1.45572E-01
-1.50119E-01
-1.54329E-01
-1.50484E-01
-1.41557E-01
-1.31128E-01
-1.25878E-01
-1.26521E-01
-1.21696E-01
-1.11755E-01
-9.80750E-02
-9.18000E-02
-9.42970E-02
-1.02501E-01
-1.11873E-01
-1.17114E-01
-1.16975E-01
-1.09253E-01
-1.02988E-01
-9.64170E-02
-8.92730E-02
-8.38230E-02
-8.23820E-02
-8.21920E-02
-8.11790E-02
-8.07390E-02
-8.01980E-02
-7.75930E-02
-7.39310E-02
-6.83900E-02
-6.37690E-02
-6.02630E-02
-6.04960E-02
-5.89740E-02
-5.64670E-02
-5.38310E-02
-4.85340E-02
-4.37670E-02
-4.30460E-02
-4.39510E-02
-4.28330E-02
-4.18610E-02
-3.40200E-02
-1.31379E-01
-1.42433E-01
-1.57165E-01
-1.65506E-01
-1.62532E-01
-1.58606E-01
-1.51902E-01
-1.56499E-01
-1.49791E-01
-1.33871E-01
-1.29355E-01
-1.42024E-01
-1.52058E-01
-1.52383E-01
-1.45979E-01
-1.30016E-01
-1.13187E-01
-1.14399E-01
-1.18738E-01
-1.13866E-01
-1.00613E-01
-9.44070E-02
-9.56290E-02
-1.03378E-01
-1.10078E-01
-1.09803E-01
-1.02871E-01
-9.96360E-02
-9.97150E-02
-9.56820E-02
-8.78800E-02
-8.33360E-02
-8.48920E-02
-8.69650E-02
-8.43380E-02
-8.14990E-02
-7.94600E-02
-7.65000E-02
-7.16140E-02
-6.63080E-02
-6.27000E-02
-6.09880E-02
-6.18910E-02
-5.89010E-02
-5.27390E-02
-4.97590E-02
-4.96460E-02
-4.78010E-02
-4.31800E-02
-4.27540E-02
-4.19220E-02
-4.02250E-02
-3.76120E-02
-1.47661E-01
-1.51300E-01
-1.57320E-01
-1.68458E-01
-1.75341E-01
-1.70932E-01
-1.56024E-01
-1.56360E-01
-1.50402E-01
-1.29133E-01
-1.17100E-01
-1.29702E-01
-1.46657E-01
-1.54126E-01
-1.48592E-01
-1.27637E-01
-1.07898E-01
-1.06995E-01
-1.13105E-01
-1.13712E-01
-1.05980E-01
-9.99420E-02
-9.89440E-02
-1.04074E-01
-1.07707E-01
-1.00816E-01
-9.28420E-02
-9.24340E-02
-9.52230E-02
-9.48020E-02
-9.00130E-02
-8.59150E-02
-8.57240E-02
-8.73050E-02
-8.49130E-02
-8.20630E-02
-7.83560E-02
-7.75800E-02
-7.26010E-02
-6.66630E-02
-6.14760E-02
-5.99850E-02
-6.12370E-02
-5.94940E-02
-5.38300E-02
-4.79270E-02
-4.56090E-02
-4.47990E-02
-4.27320E-02
-4.39330E-02
-3.95590E-02
-3.33950E-02
-3.63360E-02
-1.79876E-01
-1.72033E-01
-1.57367E-01
-1.54944E-01
-1.68068E-01
-1.65510E-01
-1.49850E-01
-1.48481E-01
-1.49051E-01
-1.34121E-01
-1.17229E-01
-1.23538E-01
-1.37900E-01
-1.42359E-01
-1.35744E-01
-1.21692E-01
-1.08861E-01
-1.03231E-01
-1.05536E-01
-1.10588E-01
-1.11305E-01
-1.09358E-01
-1.08667E-01
-1.09640E-01
-1.07510E-01
-9.83150E-02
-9.02740E-02
-9.12370E-02
-9.53730E-02
-9.40240E-02
-9.00490E-02
-9.08920E-02
-9.35950E-02
-9.01770E-02
-7.94740E-02
-7.42360E-02
-7.38760E-02
-7.88110E-02
-7.51290E-02
-6.63050E-02
-6.13140E-02
-6.08390E-02
-6.19520E-02
-5.87340E-02
-5.15760E-02
-4.05460E-02
-3.32660E-02
-3.81870E-02
-4.28320E-02
-4.62660E-02
-4.26420E-02
-3.75880E-02
-3.64070E-02
-1.84779E-01
-1.70427E-01
-1.51923E-01
-1.47375E-01
-1.61285E-01
-1.61006E-01
-1.49488E-01
-1.44652E-01
-1.47389E-01
-1.42009E-01
-1.30659E-01
-1.27791E-01
-1.32114E-01
-1.29795E-01
-1.20191E-01
-1.11333E-01
-1.09333E-01
-1.12598E-01
-1.12439E-01
-1.10627E-01
-1.05417E-01
-1.05677E-01
-1.08792E-01
-1.05368E-01
-9.98980E-02
-9.78440E-02
-9.81460E-02
-9.54700E-02
-8.91340E-02
-8.10420E-02
-8.30950E-02
-9.61920E-02
-1.01060E-01
-9.04740E-02
-7.36950E-02
-6.59620E-02
-6.59110E-02
-7.13730E-02
-7.21400E-02
-6.49220E-02
-6.46360E-02
-5.91220E-02
-5.60490E-02
-4.87140E-02
-4.61320E-02
-3.61840E-02
-2.92500E-02